/*--------------------------------*- C++ -*----------------------------------*\
| =========                 |                                                 |
| \\      /  F ield         | OpenFOAM: The Open Source CFD Toolbox           |
|  \\    /   O peration     | Version:  2506                                  |
|   \\  /    A nd           | Website:  www.openfoam.com                      |
|    \\/     M anipulation  |                                                 |
\*---------------------------------------------------------------------------*/
FoamFile
{
    version     2.0;
    format      ascii;
    arch        "LSB;label=32;scalar=64";
    class       volScalarField;
    location    "8.9";
    object      p;
}
// * * * * * * * * * * * * * * * * * * * * * * * * * * * * * * * * * * * * * //

dimensions      [0 2 -2 0 0 0 0];

internalField   nonuniform List<scalar> 
9600
(
-9.12447e-11
-0.00100803
-0.00627666
-0.00104026
2.34532e-05
0.00264022
0.0048081
0.00491373
0.00141175
0.00108904
0.00177166
0.000782901
-0.000173741
-3.95195e-05
-1.23571e-05
0.00144435
0.00098646
0.00115249
0.00197486
0.00334378
-2.53932e-06
-0.00100435
-0.00626104
-0.00112567
1.47625e-05
0.00270189
0.00479764
0.0049001
0.00142272
0.00107321
0.00177438
0.000758569
-0.000168063
-2.51417e-05
-1.06744e-05
0.00143721
0.000996939
0.00113176
0.00198671
0.00316933
-3.80765e-06
-0.00100035
-0.00626174
-0.00123502
2.7259e-05
0.00277351
0.0047617
0.00488491
0.00143733
0.00104863
0.0017795
0.000743196
-0.000146785
-1.61395e-05
-3.98086e-06
0.00141839
0.00101367
0.00109481
0.00198422
0.00293592
-4.5735e-06
-0.000999293
-0.00627783
-0.00133269
6.43599e-05
0.00281071
0.00470891
0.00487266
0.00144719
0.00102837
0.00178299
0.000744205
-0.000116477
-1.84742e-05
4.25665e-06
0.00138894
0.00102687
0.00105333
0.00195774
0.00271011
-5.94225e-06
-0.00100075
-0.00630045
-0.00140704
0.000126925
0.0028074
0.00464831
0.00485887
0.00145313
0.00101337
0.00178281
0.000758468
-8.18655e-05
-2.91135e-05
1.16135e-05
0.00135118
0.00103631
0.00100773
0.00191229
0.00250146
-8.64554e-06
-0.00100444
-0.00632437
-0.00144273
0.000213199
0.00276544
0.00458482
0.00484197
0.00145686
0.00100044
0.00177917
0.000781421
-4.51365e-05
-4.50366e-05
1.76549e-05
0.00131019
0.00104205
0.000958385
0.00185308
0.00230622
-1.32671e-05
-0.00101023
-0.00634161
-0.00143207
0.000313073
0.00268965
0.00452348
0.00482341
0.00145892
0.000987234
0.00177345
0.000807995
-7.88615e-06
-6.32822e-05
2.43472e-05
0.00127011
0.00104405
0.000908519
0.00178054
0.00211858
-1.99633e-05
-0.00101735
-0.00634414
-0.001381
0.000410284
0.00259076
0.00446988
0.00480473
0.00145954
0.000972398
0.00176709
0.000834357
2.88079e-05
-7.96647e-05
3.26602e-05
0.00123309
0.00104366
0.000859509
0.00169268
0.00193636
-2.83202e-05
-0.00102482
-0.0063281
-0.00130268
0.000491944
0.00248249
0.00442518
0.00478675
0.00145865
0.000955088
0.00176114
0.000858108
6.47379e-05
-9.39089e-05
4.14119e-05
0.00120088
0.00104084
0.000810037
0.00159079
0.00175958
-3.7512e-05
-0.00103192
-0.00629188
-0.00121012
0.000553752
0.00237213
0.00438637
0.00476981
0.0014559
0.000934836
0.00175616
0.000878457
9.99824e-05
-0.00010658
4.92391e-05
0.00117439
0.00103345
0.000759765
0.00147925
0.00158601
-4.66948e-05
-0.00103831
-0.00623668
-0.00111264
0.000597755
0.00226267
0.0043497
0.00475368
0.00145114
0.000911466
0.00175248
0.000895594
0.000133876
-0.000117594
5.50951e-05
0.00115273
0.0010199
0.000709694
0.00136098
0.00141137
-5.53388e-05
-0.00104404
-0.00616541
-0.00101602
0.000628432
0.00215405
0.00431201
0.00473746
0.00144473
0.000884953
0.00175038
0.000910153
0.000165734
-0.000126455
5.74197e-05
0.00113457
0.00100035
0.000658999
0.00123686
0.00123342
-6.32958e-05
-0.00104936
-0.00608128
-0.000923872
0.00064996
0.00204523
0.00427105
0.00472009
0.0014374
0.00085533
0.00175006
0.000922914
0.000194996
-0.000132653
5.46706e-05
0.00111914
0.000975371
0.000604422
0.00110866
0.00105342
-7.06476e-05
-0.00105446
-0.005987
-0.000838333
0.000665396
0.00193549
0.00422549
0.0047009
0.00142984
0.000822678
0.00175159
0.00093458
0.000220938
-0.000135617
4.61447e-05
0.00110552
0.00094538
0.000542448
0.000979315
0.000873678
-7.75344e-05
-0.00105947
-0.00588454
-0.000760354
0.000676899
0.00182483
0.00417479
0.00467957
0.00142247
0.000787072
0.00175482
0.000945944
0.000242749
-0.000134724
3.18466e-05
0.00109208
0.000911504
0.000470503
0.000850468
0.000695942
-8.40567e-05
-0.00106448
-0.0057753
-0.000689876
0.000685998
0.00171373
0.00411893
0.00465605
0.00141549
0.000748557
0.00175949
0.000957969
0.000259635
-0.000129622
1.23078e-05
0.00107686
0.000875731
0.000387011
0.000721593
0.000522282
-9.02493e-05
-0.00106954
-0.00566025
-0.000626207
0.0006936
0.00160292
0.00405809
0.00463044
0.00140887
0.000707183
0.00176534
0.000971642
0.00027093
-0.000120451
-1.12842e-05
0.00105785
0.000840042
0.000291613
0.000591107
0.00035575
-9.60926e-05
-0.00107467
-0.00554008
-0.00056848
0.000700753
0.00149323
0.0039925
0.00460289
0.00140254
0.000663006
0.00177196
0.000987856
0.00027618
-0.000107846
-3.72137e-05
0.00103323
0.000805656
0.000185202
0.000457291
0.000199549
-0.000101538
-0.00107988
-0.00541525
-0.000515926
0.000709113
0.00138548
0.00392232
0.00457352
0.00139651
0.000616091
0.00177881
0.00100726
0.000275238
-9.29333e-05
-6.35944e-05
0.00100177
0.000772985
6.96723e-05
0.000318357
5.62744e-05
-0.000106535
-0.0010851
-0.00528611
-0.000467986
0.000717908
0.00128037
0.00384758
0.00454247
0.00139084
0.000566479
0.00178527
0.00103031
0.000268228
-7.72147e-05
-8.88904e-05
0.000962793
0.00074197
-5.27082e-05
0.000172377
-7.21154e-05
-0.00011105
-0.0010902
-0.0051529
-0.000424331
0.000727019
0.00117851
0.00376823
0.00450982
0.0013856
0.000514093
0.0017908
0.00105734
0.000255469
-6.20972e-05
-0.000112195
0.000915726
0.000712359
-0.000179461
1.72431e-05
-0.000184384
-0.00011507
-0.00109503
-0.0050158
-0.000384818
0.000736143
0.00108067
0.00368414
0.00447557
0.00138095
0.000458777
0.00179496
0.0010885
0.000237402
-4.85925e-05
-0.000132869
0.000860056
0.00068389
-0.000307661
-0.000149497
-0.000280713
-0.000118618
-0.00109932
-0.00487503
-0.000349431
0.00074487
0.000987461
0.00359522
0.00443955
0.00137718
0.00040028
0.00179729
0.00112408
0.000214277
-3.77893e-05
-0.000150482
0.000795456
0.000656211
-0.000433627
-0.000330616
-0.000363969
-0.00012177
-0.00110275
-0.00473087
-0.000318178
0.00075279
0.000899432
0.00350137
0.00440149
0.00137474
0.000338197
0.00179724
0.00116477
0.000186214
-3.10623e-05
-0.000164369
0.000721519
0.000628313
-0.00055221
-0.000528556
-0.000441415
-0.000124627
-0.00110498
-0.00458362
-0.000291058
0.000759482
0.000817114
0.0034026
0.00436096
0.00137428
0.000272193
0.00179384
0.00121121
0.000153587
-2.96793e-05
-0.000173369
0.000637873
0.000597796
-0.000657347
-0.00074388
-0.000524902
-0.000127331
-0.00110557
-0.00443364
-0.000268024
0.000764522
0.000740985
0.00329913
0.00431737
0.00137646
0.000202124
0.00178583
0.00126399
0.000117004
-3.51574e-05
-0.000176025
0.000544871
0.000560601
-0.000743571
-0.000972857
-0.000628819
-0.000130065
-0.00110402
-0.00428136
-0.0002489
0.000767553
0.000671293
0.00319132
0.00426997
0.00138201
0.000128143
0.0017718
0.00132375
7.73339e-05
-4.97059e-05
-0.000171256
0.000444232
0.000511278
-0.00080732
-0.00120539
-0.000767334
-0.000133031
-0.00109978
-0.00412722
-0.000233546
0.000768226
0.000608213
0.00307982
0.00421792
0.00139151
5.09622e-05
0.00174983
0.00139101
3.63463e-05
-7.59907e-05
-0.000158664
0.000339238
0.000444173
-0.00084861
-0.0014262
-0.000949714
-0.000136478
-0.00109223
-0.00397167
-0.000221804
0.000766353
0.00055172
0.00296559
0.00416021
0.00140506
-2.83086e-05
0.00171765
0.00146582
-3.16952e-06
-0.000116736
-0.000138659
0.000234981
0.000354727
-0.000873052
-0.0016198
-0.00117347
-0.000140715
-0.0010807
-0.00381519
-0.000213406
0.000761934
0.000501391
0.00284982
0.00409606
0.00142234
-0.000108468
0.00167314
0.00154762
-3.82303e-05
-0.000174415
-0.000112486
0.000138158
0.000240473
-0.000891832
-0.00177335
-0.00142101
-0.000146048
-0.00106465
-0.00365818
-0.000208153
0.000755101
0.00045658
0.0027338
0.00402525
0.00144278
-0.000188175
0.00161472
0.00163495
-6.58946e-05
-0.00025091
-8.31878e-05
5.58767e-05
0.000102697
-0.000918547
-0.00188132
-0.00166545
-0.000152758
-0.00104349
-0.00350098
-0.000206025
0.000746162
0.000416433
0.00261866
0.00394786
0.00146537
-0.000265696
0.00154145
0.00172499
-8.28854e-05
-0.000346912
-5.61721e-05
-5.84339e-06
-5.26097e-05
-0.000964659
-0.00194977
-0.0018821
-0.000161168
-0.00101659
-0.00334386
-0.000207149
0.000735661
0.000379845
0.00250493
0.00386434
0.00148882
-0.000339185
0.00145302
0.00181448
-8.56847e-05
-0.000462104
-3.80344e-05
-4.2748e-05
-0.000216906
-0.00103685
-0.00199243
-0.00205462
-0.00017158
-0.000983533
-0.00318693
-0.000211623
0.000724473
0.000345712
0.00239268
0.00377567
0.00151189
-0.000407498
0.00134952
0.00190039
-7.13938e-05
-0.000595874
-3.55781e-05
-5.15091e-05
-0.000381132
-0.00113833
-0.00202275
-0.00217894
-0.000184222
-0.000944135
-0.00302996
-0.000219652
0.000713529
0.000313682
0.00228141
0.0036831
0.00153405
-0.000470045
0.00123104
0.00197953
-3.77023e-05
-0.000746548
-5.64511e-05
-2.98139e-05
-0.000534361
-0.00127196
-0.00205206
-0.00225835
-0.000199266
-0.000898473
-0.00287233
-0.000231694
0.000703353
0.000284022
0.00217022
0.00358763
0.00155528
-0.000526633
0.00109774
0.00204818
1.78477e-05
-0.000909684
-0.00010966
2.03823e-05
-0.000661975
-0.00143897
-0.00209299
-0.0022978
-0.000216795
-0.000846939
-0.00271286
-0.000248338
0.000693547
0.000257147
0.00205818
0.00348988
0.00157571
-0.000576854
0.000950036
0.00210175
9.70241e-05
-0.00107722
-0.00020382
8.94055e-05
-0.000747701
-0.00163288
-0.00216146
-0.00230515
-0.00023681
-0.000790287
-0.00254989
-0.000269949
0.000683344
0.00023426
0.0019439
0.0033896
0.00159613
-0.000619768
0.000788662
0.00213503
0.00019971
-0.00123846
-0.000344056
0.000160328
-0.000777952
-0.00183508
-0.00227419
-0.00229773
-0.000259222
-0.000729249
-0.00238127
-0.000296645
0.000670938
0.000217505
0.00182627
0.00328562
0.00161767
-0.000654141
0.000614866
0.00214296
0.000323883
-0.00138175
-0.000530702
0.000213292
-0.000747879
-0.00201919
-0.0024387
-0.0023009
-0.000284202
-0.000666144
-0.00220486
-0.000328094
0.000653285
0.000209321
0.00170565
0.00317627
0.00164113
-0.000677827
0.000430158
0.00211989
0.000465049
-0.00149516
-0.000758754
0.000228638
-0.000664552
-0.00215963
-0.00264449
-0.00234078
-0.000310159
-0.000602327
-0.00201946
-0.000363315
0.000627112
0.000211686
0.00158427
0.0030588
0.00166569
-0.000687997
0.000237353
0.0020599
0.000615521
-0.00156717
-0.00101725
0.000189634
-0.000545156
-0.00223614
-0.00286773
-0.00243528
-0.000336437
-0.00053972
-0.00182524
-0.000400086
0.000589088
0.000225252
0.00146544
0.00293012
0.0016884
-0.000681491
4.17198e-05
0.00195821
0.000764339
-0.00158855
-0.00128943
8.45324e-05
-0.000413008
-0.00223643
-0.0030805
-0.00258828
-0.000361686
-0.000480271
-0.00162363
-0.000434469
0.000536274
0.000247946
0.00135365
0.00278868
0.00170575
-0.000655609
-0.000150054
0.00181228
0.000898581
-0.00155542
-0.00155573
-9.07e-05
-0.000294528
-0.00215733
-0.00325428
-0.00279148
-0.000384348
-0.000425549
-0.00141748
-0.000460963
0.000467222
0.000276152
0.00125405
0.00263486
0.00171334
-0.000609761
-0.00033088
0.00162377
0.00100488
-0.00147179
-0.00179564
-0.000328761
-0.000216964
-0.00200936
-0.00336103
-0.00302587
-0.000402942
-0.00037724
-0.00121026
-0.000473056
0.000382688
0.00030384
0.00117171
0.0024711
0.00170473
-0.00054689
-0.00049271
0.00140031
0.00107148
-0.00134909
-0.00199149
-0.000611196
-0.000201514
-0.00181836
-0.0033796
-0.00326011
-0.000416156
-0.000336514
-0.000957801
-0.000465256
0.000285141
0.000323368
0.00111005
0.00230228
0.00167326
-0.000473083
-0.000628528
0.00115252
0.00109147
-0.00120231
-0.00213334
-0.000915719
-0.000255533
-0.00161609
-0.00330585
-0.00345611
-0.000422662
-0.000304782
-0.000758046
-0.000433867
0.000178527
0.00032625
0.00106827
0.0021361
0.00161565
-0.000396839
-0.000734492
0.00089399
0.00106422
-0.00104669
-0.00221941
-0.00122191
-0.000374092
-0.0014309
-0.00315585
-0.0035816
-0.000421188
-0.000281913
-0.000572294
-0.000376697
6.90952e-05
0.000304386
0.00104106
0.00198372
0.00153485
-0.000329662
-0.000810996
0.000640742
0.000993723
-0.000897338
-0.00225263
-0.00151178
-0.000547585
-0.00128264
-0.00295574
-0.00362197
-0.000411113
-0.000267457
-0.000405346
-0.00029529
-3.48071e-05
0.000253726
0.00102111
0.00185471
0.00143752
-0.000282286
-0.000863639
0.000404844
0.000888305
-0.000765241
-0.00223875
-0.00176969
-0.0007651
-0.00118532
-0.00273075
-0.00358214
-0.000392176
-0.000261974
-0.00026062
-0.000192535
-0.000123783
0.00017427
0.000996775
0.00175296
0.00133438
-0.000258593
-0.000901339
0.000190063
0.000760784
-0.000653619
-0.00218702
-0.00198628
-0.0010132
-0.00114841
-0.00250208
-0.0034769
-0.000364056
-0.00025494
-0.000140968
-7.41649e-05
-0.000187803
6.99306e-05
0.000953167
0.00167504
0.00124003
-0.000254432
-0.000935201
-6.19582e-06
0.000621196
-0.000561865
-0.00210733
-0.0021587
-0.00127593
-0.00117391
-0.00228716
-0.00332095
-0.000327122
-0.000247909
-4.83138e-05
5.10057e-05
-0.000219217
-5.25445e-05
0.000878121
0.001613
0.00116721
-0.000262024
-0.000972007
-0.000186797
0.000473641
-0.000490215
-0.00200691
-0.00228525
-0.00153729
-0.00125748
-0.00210224
-0.00312603
-0.000282189
-0.000237646
1.74974e-05
0.000173342
-0.000214396
-0.000182211
0.000765219
0.00155365
0.00112117
-0.000269662
-0.00101281
-0.000356799
0.000319727
-0.000439905
-0.0018916
-0.00236373
-0.00178158
-0.00139004
-0.00196358
-0.00290532
-0.000231421
-0.000221555
5.83381e-05
0.000283418
-0.000174525
-0.000303774
0.000615056
0.00147884
0.00109873
-0.000261898
-0.00105172
-0.000521692
0.000159114
-0.000411736
-0.00176946
-0.00239592
-0.00199457
-0.00155677
-0.0018841
-0.00267989
-0.000173444
-0.000199207
7.4907e-05
0.000372506
-0.000104823
-0.000402884
0.000433491
0.00137155
0.00109194
-0.00022784
-0.00107926
-0.000681104
-1.04378e-05
-0.000405252
-0.00164614
-0.0023883
-0.0021674
-0.00173746
-0.00186648
-0.00247596
-0.000114819
-0.000165412
7.92438e-05
0.000438518
-1.25414e-05
-0.000468986
0.000229434
0.00122291
0.00108903
-0.000166148
-0.00108536
-0.000828988
-0.000189171
-0.000422528
-0.00152543
-0.00234699
-0.00229869
-0.00191386
-0.00189955
-0.00231526
-5.65955e-05
-0.000129758
7.66755e-05
0.000476596
8.83626e-05
-0.000495066
2.23744e-05
0.00103376
0.00107269
-8.08963e-05
-0.00106292
-0.000958001
-0.000372088
-0.000467365
-0.00141448
-0.00227583
-0.00238981
-0.00207657
-0.00196595
-0.0022068
1.22178e-05
-6.36478e-05
5.68467e-05
0.000467509
0.000171142
-0.000480101
-0.000161219
0.000813162
0.00102375
1.73124e-05
-0.00100965
-0.0010609
-0.000551947
-0.000538694
-0.00132252
-0.00218027
-0.00243799
-0.00222009
-0.00205144
-0.00214592
6.94938e-05
-1.98711e-05
5.46103e-05
0.000441267
0.000237123
-0.000430039
-0.000304808
0.000575542
0.000932534
0.000110876
-0.000926638
-0.00113163
-0.000722873
-0.000631072
-0.00125555
-0.00207214
-0.00244221
-0.00233731
-0.00214811
-0.00212356
0.000125115
9.25021e-05
5.43213e-05
0.00039525
0.000280994
-0.000357552
-0.000404868
0.000338638
0.000800436
0.00018172
-0.00082106
-0.00116522
-0.000877314
-0.000738792
-0.00121334
-0.00196266
-0.00240704
-0.00241752
-0.00224677
-0.00213199
0.000176633
0.000132362
6.17256e-05
0.000340875
0.000299562
-0.000280187
-0.000463717
0.000121237
0.000636133
0.000217817
-0.000705052
-0.00116071
-0.00100652
-0.000857947
-0.0011968
-0.00185889
-0.00234308
-0.00245404
-0.00233322
-0.00216379
0.000217973
0.000192158
8.0802e-05
0.000286885
0.00029513
-0.000208584
-0.000487092
-6.38702e-05
0.000453047
0.000214504
-0.000592712
-0.00112345
-0.00110324
-0.000980514
-0.00120884
-0.00176709
-0.00226093
-0.00244883
-0.00239138
-0.0022058
0.000253795
0.000232294
0.000110764
0.00023677
0.000270856
-0.000150382
-0.000483051
-0.000211532
0.000267506
0.000174687
-0.000495328
-0.00106002
-0.00116064
-0.00108898
-0.00124326
-0.0016933
-0.00216844
-0.0024122
-0.00241523
-0.00224458
0.000286555
0.000283848
0.000132655
0.000188342
0.000230918
-0.000109056
-0.000460398
-0.000320662
9.31072e-05
0.000105682
-0.000419646
-0.000978164
-0.00117896
-0.00117242
-0.00128841
-0.00164371
-0.0020765
-0.00235473
-0.00240728
-0.00226682
0.000313173
0.000307858
0.000159813
0.000150453
0.000182038
-8.58109e-05
-0.000429454
-0.000395216
-6.11557e-05
1.68951e-05
-0.000369752
-0.000887809
-0.00116482
-0.00123011
-0.00133325
-0.00161402
-0.00199272
-0.00228247
-0.00237034
-0.00225817
0.000334488
0.000340587
0.000181943
0.000119372
0.000128149
-8.14642e-05
-0.000398603
-0.000440063
-0.000188126
-7.82508e-05
-0.000345114
-0.000799517
-0.00112145
-0.00125643
-0.0013667
-0.00159274
-0.00191696
-0.00220276
-0.00231636
-0.00222537
0.000349431
0.000349416
0.00020074
9.65253e-05
7.40849e-05
-9.28082e-05
-0.000372505
-0.000461352
-0.000285062
-0.000169404
-0.000342124
-0.000722914
-0.0010564
-0.00124627
-0.00137967
-0.00157187
-0.00184511
-0.00211618
-0.00224929
-0.00217727
0.000360135
0.000361306
0.000209558
7.59097e-05
2.17887e-05
-0.000117277
-0.000354998
-0.000467064
-0.000355032
-0.00024871
-0.000349388
-0.000657391
-0.0009801
-0.001202
-0.00136284
-0.00154472
-0.00177614
-0.00202212
-0.00216603
-0.00211329
0.000363553
0.000361789
0.00021061
5.92329e-05
-2.63176e-05
-0.000151938
-0.000348518
-0.000463899
-0.00040115
-0.000312101
-0.000359394
-0.000597897
-0.000896324
-0.0011302
-0.00130928
-0.00149708
-0.00170304
-0.001919
-0.00206349
-0.00202909
0.000356602
0.000343405
0.000205804
4.54182e-05
-7.00968e-05
-0.000192746
-0.000354379
-0.000458844
-0.000426396
-0.000355432
-0.000368624
-0.000541097
-0.000801205
-0.00103514
-0.0012185
-0.00141265
-0.00161155
-0.00180346
-0.0019408
-0.00192042
0.000346059
0.000333762
0.000185288
2.0816e-05
-0.0001119
-0.000236588
-0.000370736
-0.000458118
-0.000439541
-0.00037734
-0.000368231
-0.00048501
-0.000693595
-0.000917082
-0.00109635
-0.00128603
-0.00148605
-0.00166495
-0.00179264
-0.00177979
0.000324502
0.000306295
0.000155995
-7.36804e-06
-0.000151251
-0.000281536
-0.000395578
-0.000463385
-0.000448841
-0.000385487
-0.00035421
-0.000424424
-0.000570206
-0.000764052
-0.000936303
-0.00111231
-0.00131047
-0.00148565
-0.001607
-0.00159986
0.000285979
0.000264867
0.000119188
-3.9372e-05
-0.000189627
-0.000325948
-0.000430087
-0.000481107
-0.000458362
-0.000387345
-0.000327212
-0.000347035
-0.000422067
-0.000559953
-0.000716422
-0.000878077
-0.00107209
-0.00125561
-0.00137756
-0.00137962
0.000242721
0.00022464
6.72703e-05
-8.83797e-05
-0.000233716
-0.000365822
-0.00046379
-0.000516355
-0.000494065
-0.000405936
-0.000297615
-0.000239175
-0.00022111
-0.000260429
-0.000346363
-0.000451608
-0.000600035
-0.000794837
-0.000988686
-0.00111752
0.000178266
0.000148053
-1.12419e-05
-0.000161306
-0.000294052
-0.000410459
-0.000489495
-0.000550156
-0.000588812
-0.000572628
-0.000458527
-0.000290792
-0.000143019
-7.29267e-05
-5.13576e-05
-6.19112e-06
0.000116091
0.000313374
0.000559186
0.000767451
0.000140288
0.000114264
-4.73723e-05
-0.000197899
-0.00034496
-0.000490449
-0.000548987
-0.000504775
-0.000391536
-0.000272184
-0.000176914
-0.000115258
-4.78673e-05
2.83136e-05
0.000133253
0.000269465
0.000437925
0.000596055
0.000708666
0.000727197
-8.52573e-05
-0.00011052
-0.000158249
-0.000191536
-0.000242174
-0.000313419
-0.000368722
-0.00038434
-0.000337863
-0.000271912
-0.00022053
-0.000184246
-0.000122008
-4.31404e-05
7.59406e-05
0.000246733
0.000479237
0.000759579
0.00103022
0.00121234
-2.99822e-05
-6.25489e-06
-0.000102552
-0.000172006
-0.000221148
-0.00028712
-0.000343994
-0.000368808
-0.000327116
-0.000244256
-0.000140644
-5.03006e-05
5.70309e-05
0.000151636
0.000194555
0.000164217
2.96151e-05
-0.000207035
-0.000510524
-0.00079901
-0.000243135
-0.000238312
-0.000230611
-0.000191673
-0.000178591
-0.000219499
-0.000284853
-0.000326113
-0.000295152
-0.000241357
-0.000163469
-9.01046e-05
-8.03069e-06
0.000122919
0.00028703
0.000497738
0.00076398
0.00105071
0.00129479
0.00140189
-0.000266118
-0.000243808
-0.00022743
-0.000170925
-0.000135742
-0.000165889
-0.000237448
-0.000298404
-0.000277963
-0.000237752
-0.000178311
-9.39367e-05
1.07063e-05
0.000163026
0.000345516
0.000531075
0.000708801
0.000845187
0.000907454
0.000830803
0.00542537
0.002031
-0.00430263
-0.00928451
-0.0103053
-0.0090148
-0.00754686
-0.00647505
-0.00568785
-0.00499586
-0.00435931
-0.00384385
-0.00348629
-0.0032406
-0.00302512
-0.00274458
-0.00230952
-0.0018142
-0.00145949
-0.00122642
-0.000977403
-0.000689666
-0.000391214
-9.71014e-05
0.000164689
0.0003976
0.000663935
0.00100914
0.00140436
0.00181077
0.00220062
0.00255002
0.00286869
0.00319055
0.00351329
0.00383805
0.00415036
0.00442494
0.00465398
0.00488933
0.00514157
0.00536542
0.00558613
0.0058744
0.0062351
0.00660412
0.00693365
0.0072585
0.00765093
0.00808096
0.00849568
0.00890966
0.00929612
0.00957075
0.00976391
0.0100515
0.0105135
0.0110527
0.0115443
0.0119998
0.0124399
0.0128499
0.0132331
0.0136666
0.0141291
0.0145758
0.0150582
0.0155869
0.0161047
0.0166089
0.0171524
0.0176848
0.018227
0.0187748
0.0193592
0.0199566
0.0205775
0.0211953
0.0218427
0.0224942
0.023163
0.0238291
0.0244841
0.0251953
0.0259118
0.0266696
0.0273758
0.0281113
0.0288527
0.0296111
0.03042
0.0312125
0.032031
0.0328677
0.0336923
0.0345818
0.0354223
0.0363013
0.0371529
0.037844
0.0049787
0.00191289
-0.00421232
-0.00913334
-0.010216
-0.00897357
-0.0075231
-0.00645944
-0.00567655
-0.00498674
-0.00435121
-0.00383629
-0.0034794
-0.00323468
-0.00302033
-0.00274089
-0.00230649
-0.00181127
-0.00145673
-0.00122408
-0.000975377
-0.000687844
-0.00038956
-9.55285e-05
0.000166206
0.000398982
0.000665162
0.0010103
0.00140552
0.00181192
0.00220179
0.00255118
0.00286979
0.00319159
0.00351429
0.00383902
0.00415133
0.00442591
0.0046549
0.00489017
0.00514241
0.00536624
0.00558688
0.00587508
0.00623576
0.00660478
0.00693429
0.00725906
0.00765143
0.00808145
0.00849615
0.00891012
0.00929661
0.00957125
0.00976432
0.0100518
0.0105138
0.011053
0.0115446
0.0120001
0.0124402
0.0128502
0.0132334
0.0136669
0.0141293
0.014576
0.0150584
0.0155871
0.0161049
0.0166091
0.0171526
0.017685
0.0182272
0.0187749
0.0193593
0.0199568
0.0205777
0.0211955
0.0218429
0.0224944
0.0231632
0.0238292
0.0244843
0.0251954
0.0259119
0.0266697
0.0273759
0.0281114
0.0288528
0.0296112
0.0304201
0.0312126
0.0320311
0.0328678
0.0336924
0.0345819
0.0354224
0.0363014
0.037153
0.0378441
0.00450756
0.00176952
-0.00405061
-0.00886791
-0.010067
-0.00891749
-0.00749347
-0.006438
-0.00566079
-0.00497521
-0.00434259
-0.00382932
-0.00347299
-0.00322839
-0.00301451
-0.00273609
-0.00230266
-0.00180799
-0.00145393
-0.00122174
-0.000973283
-0.000685965
-0.00038793
-9.40527e-05
0.000167566
0.00040016
0.000666171
0.00101127
0.00140652
0.00181295
0.00220283
0.00255219
0.00287074
0.00319251
0.00351518
0.00383988
0.00415219
0.00442677
0.0046557
0.00489091
0.00514314
0.00536693
0.00558747
0.00587563
0.00623634
0.00660538
0.00693485
0.00725953
0.00765186
0.00808189
0.00849658
0.00891055
0.00929711
0.00957172
0.00976463
0.010052
0.010514
0.0110533
0.0115449
0.0120004
0.0124404
0.0128505
0.0132336
0.0136671
0.0141295
0.0145762
0.0150586
0.0155873
0.0161051
0.0166092
0.0171528
0.0176851
0.0182274
0.0187751
0.0193595
0.0199569
0.0205778
0.0211956
0.021843
0.0224945
0.0231633
0.0238294
0.0244844
0.0251955
0.025912
0.0266698
0.027376
0.0281115
0.0288529
0.0296113
0.0304202
0.0312126
0.0320311
0.0328679
0.0336925
0.0345819
0.0354225
0.0363014
0.0371531
0.0378443
0.00406396
0.00163165
-0.00384499
-0.00853202
-0.00985961
-0.00883294
-0.00744578
-0.00640266
-0.00563489
-0.00495705
-0.00433067
-0.00382152
-0.00346648
-0.00322096
-0.00300586
-0.00272775
-0.00229614
-0.00180338
-0.00145038
-0.00121845
-0.000970013
-0.000683042
-0.000385588
-9.2157e-05
0.000169171
0.000401487
0.000667259
0.00101227
0.00140753
0.00181395
0.00220381
0.00255315
0.00287167
0.00319346
0.0035161
0.00384075
0.00415307
0.00442767
0.00465656
0.00489169
0.00514388
0.0053676
0.00558804
0.0058762
0.00623695
0.00660601
0.00693543
0.00726002
0.00765233
0.00808236
0.00849703
0.00891103
0.00929768
0.00957224
0.00976491
0.0100522
0.0105142
0.0110536
0.0115453
0.0120006
0.0124407
0.0128507
0.0132338
0.0136673
0.0141297
0.0145764
0.0150587
0.0155875
0.0161053
0.0166094
0.0171529
0.0176853
0.0182275
0.0187752
0.0193596
0.0199571
0.0205779
0.0211957
0.0218431
0.0224946
0.0231634
0.0238295
0.0244845
0.0251956
0.0259121
0.0266699
0.0273761
0.0281116
0.028853
0.0296114
0.0304203
0.0312127
0.0320312
0.032868
0.0336926
0.034582
0.0354226
0.0363015
0.0371533
0.0378445
0.00363852
0.00148847
-0.00362691
-0.00817137
-0.00962478
-0.0087324
-0.00738692
-0.00635609
-0.00559882
-0.00493113
-0.0043139
-0.00381151
-0.00345906
-0.00321196
-0.00299369
-0.00271464
-0.00228577
-0.0017969
-0.00144592
-0.00121382
-0.000964829
-0.000678145
-0.000381651
-8.91343e-05
0.000171581
0.000403419
0.00066876
0.0010135
0.00140865
0.00181497
0.00220468
0.00255393
0.00287252
0.00319445
0.00351709
0.00384164
0.00415394
0.00442865
0.00465758
0.00489262
0.00514467
0.00536827
0.00558869
0.00587688
0.00623764
0.00660668
0.00693609
0.00726061
0.00765288
0.0080829
0.00849756
0.00891163
0.00929837
0.00957283
0.00976521
0.0100523
0.0105144
0.0110541
0.0115457
0.012001
0.0124411
0.0128511
0.0132341
0.0136675
0.01413
0.0145766
0.0150589
0.0155877
0.0161055
0.0166095
0.0171531
0.0176855
0.0182277
0.0187754
0.0193597
0.0199572
0.0205781
0.0211959
0.0218432
0.0224948
0.0231636
0.0238296
0.0244846
0.0251957
0.0259122
0.02667
0.0273762
0.0281117
0.0288531
0.0296115
0.0304204
0.0312128
0.0320313
0.032868
0.0336926
0.0345821
0.0354227
0.0363016
0.0371535
0.0378448
0.00322558
0.00133418
-0.00341411
-0.00780554
-0.00937626
-0.00862484
-0.00732535
-0.00630503
-0.00555694
-0.00489989
-0.00429316
-0.00379904
-0.00345014
-0.0032012
-0.00297836
-0.00269723
-0.00227178
-0.00178865
-0.00144061
-0.00120797
-0.000957769
-0.000671118
-0.000375718
-8.44119e-05
0.000175447
0.000406582
0.000671146
0.00101523
0.00141003
0.00181606
0.00220539
0.00255439
0.00287309
0.00319533
0.00351806
0.00384244
0.00415469
0.00442967
0.00465887
0.0048938
0.00514554
0.005369
0.00558949
0.00587777
0.00623843
0.00660738
0.0069368
0.00726133
0.00765354
0.00808351
0.0084982
0.00891238
0.00929919
0.00957349
0.00976554
0.0100524
0.0105147
0.0110546
0.0115462
0.0120014
0.0124415
0.0128515
0.0132344
0.0136677
0.0141303
0.0145768
0.0150591
0.0155879
0.0161057
0.0166097
0.0171533
0.0176856
0.0182279
0.0187755
0.0193599
0.0199574
0.0205782
0.021196
0.0218434
0.0224949
0.0231637
0.0238298
0.0244847
0.0251958
0.0259124
0.0266702
0.0273764
0.0281118
0.0288533
0.0296115
0.0304205
0.0312129
0.0320314
0.0328681
0.0336927
0.0345822
0.0354228
0.0363017
0.0371537
0.0378452
0.00282918
0.00117018
-0.00321472
-0.00744165
-0.00911676
-0.00851116
-0.00726302
-0.00625218
-0.00551169
-0.00486523
-0.00426959
-0.00378439
-0.0034395
-0.00318876
-0.00296083
-0.00267709
-0.00225549
-0.00177923
-0.00143469
-0.00120118
-0.000949321
-0.000662477
-0.000368127
-7.80046e-05
0.000181089
0.000411498
0.000674938
0.00101786
0.00141192
0.00181737
0.00220602
0.00255454
0.00287331
0.00319593
0.00351881
0.00384294
0.00415511
0.00443062
0.00466042
0.0048953
0.00514655
0.00536984
0.0055906
0.00587903
0.00623941
0.00660811
0.00693759
0.00726217
0.00765425
0.00808413
0.00849895
0.00891332
0.00930019
0.00957427
0.00976595
0.0100527
0.0105151
0.0110551
0.0115468
0.0120019
0.012442
0.012852
0.0132347
0.0136681
0.0141306
0.0145771
0.0150594
0.0155882
0.016106
0.01661
0.0171535
0.0176859
0.0182281
0.0187757
0.01936
0.0199575
0.0205784
0.0211962
0.0218435
0.0224951
0.0231639
0.02383
0.0244848
0.025196
0.0259125
0.0266703
0.0273765
0.0281119
0.0288534
0.0296116
0.0304206
0.031213
0.0320315
0.0328683
0.0336928
0.0345823
0.035423
0.0363018
0.037154
0.0378457
0.00245518
0.000996654
-0.00303489
-0.00708297
-0.00884512
-0.00838862
-0.00719913
-0.00619833
-0.00546416
-0.00482802
-0.00424379
-0.00376785
-0.00342725
-0.00317493
-0.00294192
-0.0026555
-0.00223801
-0.00176914
-0.00142827
-0.0011937
-0.000940003
-0.000652971
-0.000359653
-7.04851e-05
0.000188255
0.000418225
0.000680391
0.00102168
0.00141454
0.00181907
0.00220673
0.00255454
0.00287327
0.00319625
0.00351921
0.00384295
0.00415496
0.00443126
0.00466209
0.00489705
0.00514766
0.00537084
0.00559215
0.00588085
0.00624075
0.00660899
0.00693855
0.00726319
0.00765496
0.00808462
0.0084997
0.00891443
0.00930137
0.00957519
0.00976651
0.0100531
0.0105156
0.0110558
0.0115474
0.0120025
0.0124426
0.0128526
0.0132352
0.0136685
0.0141311
0.0145775
0.0150597
0.0155886
0.0161064
0.0166103
0.0171538
0.0176861
0.0182283
0.0187759
0.0193602
0.0199577
0.0205786
0.0211964
0.0218437
0.0224952
0.023164
0.0238301
0.0244849
0.0251961
0.0259127
0.0266705
0.0273767
0.0281121
0.0288535
0.0296118
0.0304208
0.0312132
0.0320316
0.0328684
0.0336929
0.0345823
0.0354231
0.036302
0.0371543
0.0378462
0.00210518
0.000812646
-0.00287701
-0.00672917
-0.00855885
-0.00825458
-0.00713337
-0.00614483
-0.00541555
-0.00478883
-0.00421593
-0.0037495
-0.00341358
-0.00316002
-0.00292209
-0.00263301
-0.00221972
-0.00175844
-0.00142135
-0.00118563
-0.000930082
-0.000643026
-0.000350866
-6.24978e-05
0.000196351
0.000426358
0.000687367
0.00102673
0.00141798
0.00182122
0.00220761
0.00255457
0.00287319
0.00319643
0.00351931
0.0038424
0.00415413
0.00443142
0.00466368
0.00489886
0.00514875
0.00537196
0.00559418
0.00588335
0.00624262
0.00661022
0.00693987
0.00726457
0.00765572
0.00808486
0.00850024
0.0089155
0.0093026
0.00957626
0.00976731
0.0100537
0.0105162
0.0110565
0.0115482
0.0120031
0.0124433
0.0128533
0.0132359
0.0136691
0.0141317
0.014578
0.0150602
0.015589
0.0161068
0.0166106
0.0171542
0.0176864
0.0182285
0.0187762
0.0193604
0.0199579
0.0205788
0.0211965
0.0218439
0.0224954
0.0231642
0.0238303
0.0244851
0.0251963
0.0259128
0.0266707
0.0273769
0.0281122
0.0288537
0.0296119
0.0304209
0.0312133
0.0320317
0.0328685
0.033693
0.0345824
0.0354233
0.0363021
0.0371546
0.0378469
0.00177727
0.00062092
-0.00273884
-0.00637969
-0.0082582
-0.00810862
-0.00706635
-0.006093
-0.0053667
-0.00474769
-0.00418575
-0.00372918
-0.00339848
-0.00314411
-0.00290144
-0.00260964