/*--------------------------------*- C++ -*----------------------------------*\
| =========                 |                                                 |
| \\      /  F ield         | OpenFOAM: The Open Source CFD Toolbox           |
|  \\    /   O peration     | Version:  2506                                  |
|   \\  /    A nd           | Website:  www.openfoam.com                      |
|    \\/     M anipulation  |                                                 |
\*---------------------------------------------------------------------------*/
FoamFile
{
    version     2.0;
    format      ascii;
    arch        "LSB;label=32;scalar=64";
    class       volScalarField;
    location    "6.85";
    object      p;
}
// * * * * * * * * * * * * * * * * * * * * * * * * * * * * * * * * * * * * * //

dimensions      [0 2 -2 0 0 0 0];

internalField   nonuniform List<scalar> 
9600
(
4.84314e-10
0.00717467
-0.00339724
-0.00284097
0.00158758
0.000881025
-0.00734349
-0.00577171
-0.00769471
-0.0105443
-0.00922925
-0.00872112
-0.00999279
-0.0102699
-0.0106961
-0.01178
-0.0115883
-0.0105289
-0.00947689
-0.00666451
7.47902e-06
0.00701937
-0.00339232
-0.0027976
0.00156633
0.000841139
-0.00730987
-0.00579266
-0.00769156
-0.0105251
-0.00924781
-0.00871741
-0.00998718
-0.0102752
-0.0107026
-0.0117871
-0.0115709
-0.0105517
-0.00942921
-0.00697578
7.27828e-06
0.00686095
-0.00337545
-0.0027362
0.00152163
0.000794354
-0.00727754
-0.00582831
-0.00767215
-0.0104895
-0.00926572
-0.00871233
-0.00998283
-0.010288
-0.0107101
-0.0117888
-0.0115556
-0.0105806
-0.00940955
-0.00734828
-1.60066e-06
0.00669122
-0.00334727
-0.00268537
0.00146387
0.000743237
-0.0072556
-0.00586627
-0.00764106
-0.0104398
-0.00928558
-0.00871723
-0.00998068
-0.0103013
-0.0107207
-0.011787
-0.0115483
-0.0106114
-0.0094172
-0.00769667
-1.81283e-05
0.00651398
-0.00330403
-0.0026511
0.00139119
0.000686894
-0.0072349
-0.00590561
-0.00760306
-0.0103801
-0.00931518
-0.00873297
-0.0099777
-0.0103178
-0.0107364
-0.0117867
-0.0115443
-0.0106446
-0.00944463
-0.00802111
-4.04148e-05
0.00633835
-0.0032429
-0.00263853
0.00130453
0.000630291
-0.00722045
-0.00594966
-0.00756099
-0.0103174
-0.0093562
-0.00875583
-0.00997427
-0.0103394
-0.0107538
-0.011788
-0.0115408
-0.0106801
-0.00948979
-0.00832607
-6.58004e-05
0.00617211
-0.0031648
-0.00265146
0.00120933
0.000575085
-0.00718045
-0.00600057
-0.0075168
-0.0102558
-0.00940551
-0.0087826
-0.00997085
-0.0103635
-0.0107698
-0.0117901
-0.0115381
-0.010717
-0.00955279
-0.00861518
-9.12012e-05
0.00601859
-0.0030751
-0.00268665
0.00111237
0.000520394
-0.00713052
-0.00605769
-0.00747121
-0.0101954
-0.00945924
-0.00881117
-0.0099667
-0.0103883
-0.0107843
-0.0117931
-0.0115373
-0.0107547
-0.00963356
-0.00889156
-0.000114293
0.00587621
-0.00298113
-0.00273638
0.00101803
0.000463848
-0.00707295
-0.0061192
-0.00742427
-0.010136
-0.00951507
-0.00884037
-0.00996162
-0.0104139
-0.0107983
-0.0117969
-0.0115397
-0.0107928
-0.00973172
-0.00915918
-0.000133684
0.00574062
-0.00288882
-0.00279325
0.000926612
0.000403015
-0.00699888
-0.00618352
-0.00737621
-0.0100777
-0.00957198
-0.00886995
-0.00995616
-0.0104404
-0.0108124
-0.0118019
-0.0115465
-0.0108315
-0.00984653
-0.00942199
-0.000149715
0.00560702
-0.00280113
-0.00285234
0.000835522
0.000336495
-0.00693703
-0.0062496
-0.00732763
-0.0100204
-0.00962957
-0.00890035
-0.00995063
-0.0104673
-0.010828
-0.0118077
-0.0115583
-0.0108721
-0.00997622
-0.00968268
-0.000163116
0.00547165
-0.00271859
-0.0029117
0.000741748
0.000264228
-0.0068759
-0.00631714
-0.00727913
-0.00996376
-0.00968774
-0.00893181
-0.00994514
-0.010495
-0.0108458
-0.0118138
-0.0115761
-0.0109159
-0.0101174
-0.00994233
-0.000174749
0.00533216
-0.00264059
-0.00297126
0.000643323
0.000186829
-0.00681603
-0.00638616
-0.00723105
-0.00990712
-0.0097465
-0.00896428
-0.0099402
-0.0105234
-0.0108658
-0.0118199
-0.0116005
-0.0109645
-0.0102664
-0.0102011
-0.000185321
0.00518731
-0.00256633
-0.00303141
0.000539523
0.000105031
-0.00675744
-0.00645664
-0.00718354
-0.00984991
-0.00980586
-0.00899769
-0.00993644
-0.0105521
-0.0108881
-0.0118266
-0.0116309
-0.0110191
-0.0104215
-0.0104597
-0.000195363
0.00503654
-0.00249513
-0.00309247
0.000430501
1.94879e-05
-0.0067
-0.00652846
-0.00713679
-0.00979169
-0.00986599
-0.00903191
-0.00993404
-0.0105808
-0.0109129
-0.0118348
-0.0116658
-0.0110806
-0.0105831
-0.0107177
-0.000205281
0.00487971
-0.0024265
-0.00315453
0.000316774
-6.93336e-05
-0.00664362
-0.00660143
-0.00709113
-0.00973213
-0.00992723
-0.00906666
-0.00993296
-0.0106099
-0.0109399
-0.0118458
-0.0117043
-0.0111498
-0.0107514
-0.0109734
-0.000215396
0.00471682
-0.00236021
-0.00321756
0.000198826
-0.000161114
-0.00658837
-0.00667532
-0.00704707
-0.009671
-0.00998992
-0.00910169
-0.00993309
-0.0106398
-0.0109683
-0.0118611
-0.0117472
-0.0112259
-0.0109255
-0.0112252
-0.000225963
0.00454795
-0.00229624
-0.00328144
7.69588e-05
-0.000255615
-0.0065345
-0.00674985
-0.00700523
-0.00960807
-0.0100543
-0.00913697
-0.00993412
-0.0106713
-0.0109969
-0.0118822
-0.011796
-0.011307
-0.0111049
-0.0114738
-0.000237206
0.0043732
-0.00223475
-0.00334597
-4.87104e-05
-0.000352613
-0.00648231
-0.00682483
-0.00696631
-0.00954308
-0.0101206
-0.0091726
-0.00993532
-0.0107056
-0.0110249
-0.0119092
-0.0118524
-0.011391
-0.0112891
-0.0117211
-0.000249341
0.00419274
-0.00217599
-0.00341094
-0.000178226
-0.000451873
-0.00643207
-0.00690007
-0.00693094
-0.00947575
-0.0101889
-0.00920896
-0.00993565
-0.0107441
-0.0110521
-0.0119411
-0.0119182
-0.0114765
-0.0114764
-0.011969
-0.000262604
0.0040068
-0.00212032
-0.00347608
-0.000311745
-0.000553154
-0.00638399
-0.00697536
-0.00689976
-0.00940591
-0.0102591
-0.00924691
-0.00993389
-0.0107879
-0.0110795
-0.0119764
-0.0119955
-0.0115637
-0.0116638
-0.0122192
-0.000277255
0.00381564
-0.00206817
-0.0035411
-0.000449506
-0.000656207
-0.00633823
-0.00705051
-0.00687338
-0.00933345
-0.0103308
-0.00928765
-0.00992889
-0.0108374
-0.0111085
-0.0120128
-0.0120859
-0.011654
-0.0118474
-0.0124737
-0.000293573
0.00361962
-0.00202005
-0.00360573
-0.000591843
-0.000760792
-0.00629488
-0.00712542
-0.00685228
-0.00925846
-0.0104035
-0.0093324
-0.00991964
-0.0108925
-0.0111413
-0.012048
-0.0121896
-0.0117498
-0.0120227
-0.0127344
-0.000311875
0.0034191
-0.00197652
-0.00366966
-0.000739162
-0.000866715
-0.00625398
-0.00720024
-0.00683675
-0.00918128
-0.0104765
-0.0093823
-0.00990531
-0.0109524
-0.011181
-0.0120801
-0.0123061
-0.0118543
-0.012185
-0.0130009
-0.000332535
0.00321454
-0.00193824
-0.00373253
-0.000891849
-0.000973884
-0.00621548
-0.00727522
-0.006827
-0.00910236
-0.0105491
-0.00943849
-0.00988544
-0.0110158
-0.0112305
-0.0121082
-0.0124331
-0.0119718
-0.01233
-0.0132686
-0.000355945
0.00300643
-0.00190588
-0.00379401
-0.00105025
-0.00108233
-0.00617919
-0.00735068
-0.0068233
-0.00902212
-0.0106204
-0.00950218
-0.00986007
-0.0110808
-0.0112926
-0.0121316
-0.0125674
-0.0121077
-0.0124562
-0.0135274
-0.000382555
0.00279534
-0.00188011
-0.0038538
-0.00121466
-0.00119219
-0.00614476
-0.00742715
-0.00682579
-0.00894068
-0.0106902
-0.00957448
-0.00982951
-0.0111457
-0.0113694
-0.0121506
-0.0127042
-0.012267
-0.0125662
-0.0137623
-0.00041286
0.00258197
-0.00186162
-0.00391165
-0.00138524
-0.00130378
-0.00611162
-0.00750535
-0.00683475
-0.00885778
-0.0107582
-0.00965632
-0.00979419
-0.0112087
-0.0114631
-0.0121664
-0.0128372
-0.0124536
-0.0126689
-0.0139573
-0.000447371
0.00236707
-0.00185111
-0.00396735
-0.00156194
-0.00141765
-0.00607913
-0.0075858
-0.0068509
-0.00877336
-0.0108239
-0.00974861
-0.00975459
-0.0112677
-0.0115756
-0.0121814
-0.012959
-0.0126677
-0.0127793
-0.0141006
-0.000486666
0.00215139
-0.00184914
-0.00402083
-0.00174461
-0.00153451
-0.00604627
-0.00766869
-0.00687571
-0.00868736
-0.0108864
-0.00985298
-0.0097114
-0.0113196
-0.011709
-0.0121997
-0.0130616
-0.0129042
-0.0129153
-0.0141918
-0.000531378
0.00193562
-0.00185618
-0.00407213
-0.00193281
-0.00165543
-0.00601186
-0.00775378
-0.00691105
-0.00859957
-0.0109447
-0.00997184
-0.00966591
-0.0113598
-0.0118644
-0.0122278
-0.0131389
-0.0131513
-0.0130917
-0.0142482
-0.000582154
0.00172052
-0.0018726
-0.0041214
-0.00212569
-0.00178195
-0.00597513
-0.00784023
-0.00695868
-0.00851011
-0.010997
-0.0101074
-0.00962125
-0.0113836
-0.0120412
-0.0122737
-0.0131881
-0.0133935
-0.0133135
-0.0142979
-0.000639665
0.00150677
-0.00189855
-0.00416923
-0.0023222
-0.00191563
-0.00593617
-0.00792675
-0.00702041
-0.00841982
-0.0110403
-0.0102607
-0.00958237
-0.0113866
-0.0122362
-0.0123458
-0.0132115
-0.0136163
-0.0135735
-0.0143689
-0.000704601
0.00129496
-0.00193403
-0.00421652
-0.00252083
-0.00205796
-0.00589554
-0.00801149
-0.0070981
-0.00833019
-0.0110713
-0.010432
-0.00955531
-0.0113657
-0.0124436
-0.0124516
-0.0132142
-0.0138096
-0.0138584
-0.0144799
-0.000777643
0.00108554
-0.00197863
-0.00426431
-0.00271985
-0.00220996
-0.0058543
-0.00809231
-0.00719316
-0.00824395
-0.0110869
-0.0106202
-0.0095468
-0.0113184
-0.0126564
-0.0125976
-0.013202
-0.0139648
-0.0141562
-0.0146375
-0.000859382
0.000878755
-0.00202983
-0.00431409
-0.00291765
-0.00237192
-0.00581462
-0.00816665
-0.00730589
-0.00816504
-0.011084
-0.0108222
-0.00956444
-0.0112452
-0.012864
-0.0127895
-0.0131845
-0.0140722
-0.0144565
-0.0148437
-0.000950345
0.000674698
-0.00208732
-0.00436806
-0.00311317
-0.00254346
-0.0057793
-0.00823168
-0.00743511
-0.00809809
-0.0110607
-0.0110335
-0.00961628
-0.0111502
-0.0130527
-0.0130296
-0.013179
-0.0141228
-0.0147416
-0.0150993
-0.00105101
0.000473289
-0.00214953
-0.00442854
-0.00330619
-0.00272324
-0.0057513
-0.00828561
-0.00757871
-0.00804765
-0.0110168
-0.0112483
-0.00970874
-0.0110411
-0.0132083
-0.013313
-0.0132073
-0.0141168
-0.0149859
-0.0153982
-0.00116161
0.000273881
-0.0022144
-0.00449709
-0.00349725
-0.00290905
-0.00573366
-0.00832856
-0.00773327
-0.00801765
-0.0109548
-0.0114595
-0.00984489
-0.010929
-0.013319
-0.0136275
-0.013289
-0.0140685
-0.0151643
-0.0157193
-0.00128219
7.54357e-05
-0.00227943
-0.00457444
-0.00368813
-0.00309807
-0.00572845
-0.00836187
-0.00789449
-0.00801109
-0.0108787
-0.0116599
-0.0100242
-0.0108263
-0.0133778
-0.0139568
-0.0134364
-0.0140018
-0.0152612
-0.0160283
-0.00141261
-0.000123374
-0.00234255
-0.00466049
-0.00388116
-0.00328757
-0.00573657
-0.00838779
-0.00805819
-0.00802906
-0.0107937
-0.0118444
-0.0102434
-0.0107449
-0.0133824
-0.0142826
-0.0136543
-0.0139435
-0.015275
-0.0162896
-0.00155241
-0.000324308
-0.00240247
-0.00475429
-0.00407934
-0.0034753
-0.00575698
-0.00841041
-0.00822202
-0.00807091
-0.0107046
-0.0120103
-0.010498
-0.0106964
-0.013335
-0.014585
-0.0139406
-0.0139197
-0.0152173
-0.0164736
-0.00170092
-0.000529308
-0.00245894
-0.00485356
-0.00428626
-0.00366002
-0.00578694
-0.00843484
-0.00838602
-0.00813423
-0.0106149
-0.0121565
-0.0107826
-0.010691
-0.0132424
-0.0148416
-0.0142854
-0.0139563
-0.0151094
-0.0165623
-0.00185727
-0.000740156
-0.00251239
-0.00495478
-0.00450473
-0.00384287
-0.00582318
-0.00846445
-0.00855121
-0.00821697
-0.0105259
-0.0122806
-0.0110908
-0.0107371
-0.0131181
-0.015032
-0.0146677
-0.0140758
-0.0149815
-0.0165511
-0.00202036
-0.000958589
-0.00256434
-0.00505347
-0.00473664
-0.00402666
-0.00586115
-0.00850014
-0.00872085
-0.00831938
-0.0104376
-0.0123782
-0.0114163
-0.0108417
-0.0129797
-0.0151426
-0.0150566
-0.0142887
-0.0148719
-0.0164503
-0.00218887
-0.00118628
-0.00261736
-0.00514451
-0.00498254
-0.00421629
-0.00589582
-0.00853964
-0.00890052
-0.00844395
-0.0103504
-0.0124446
-0.0117515
-0.0110081
-0.012845
-0.0151704
-0.0154195
-0.0145876
-0.0148208
-0.0162872
-0.00236138
-0.00142456
-0.00267493
-0.00522248
-0.0052413
-0.00441914
-0.00592442
-0.00857888
-0.0090944
-0.00859424
-0.0102676
-0.0124749
-0.012085
-0.0112351
-0.012733
-0.0151238
-0.0157283
-0.014948
-0.0148584
-0.0161022
-0.0025364
-0.00167419
-0.0027415
-0.00528261
-0.00550999
-0.00464438
-0.00594897
-0.008609
-0.00930089
-0.00877609
-0.0101964
-0.0124638
-0.0124022
-0.0115183
-0.0126636
-0.0150188
-0.0159615
-0.0153371
-0.014995
-0.01594
-0.00271231
-0.00193495
-0.00282215
-0.00532324
-0.00578388
-0.00489958
-0.0059749
-0.00861865
-0.0095131
-0.00899468
-0.0101468
-0.0124119
-0.0126873
-0.0118463
-0.0126541
-0.0148787
-0.016107
-0.015721
-0.015222
-0.0158386
-0.00288801
-0.00220629
-0.00292156
-0.00534526
-0.00605502
-0.00518834
-0.00601115
-0.00860199
-0.00972139
-0.00924963
-0.0101313
-0.0123274
-0.0129255
-0.0122012
-0.0127141
-0.0147313
-0.0161655
-0.0160668
-0.0155184
-0.0158199
-0.00306296
-0.00248638
-0.0030441
-0.00535104
-0.00631356
-0.00551077
-0.00607064
-0.00856005
-0.00991117
-0.0095337
-0.0101622
-0.0122232
-0.0131069
-0.0125637
-0.0128429
-0.014604
-0.0161524
-0.0163463
-0.015853
-0.015892
-0.00323695
-0.0027718
-0.00319317
-0.00534621
-0.00654875
-0.00586252
-0.00616867
-0.00850011
-0.0100668
-0.00983577
-0.0102474
-0.0121156
-0.0132277
-0.012915
-0.0130326
-0.0145162
-0.0160919
-0.0165448
-0.0161888
-0.0160512
-0.00341019
-0.00305873
-0.00337047
-0.00533947
-0.00675201
-0.00623696
-0.00631813
-0.00843319
-0.0101778
-0.0101409
-0.0103872
-0.0120237
-0.0132922
-0.0132356
-0.0132702
-0.0144796
-0.0160085
-0.0166651
-0.0164884
-0.0162754
-0.00358326
-0.00334334
-0.00357637
-0.00534101
-0.006918
-0.00662235
-0.00652651
-0.0083759
-0.0102408
-0.0104305
-0.0105734
-0.0119647
-0.013313
-0.0135104
-0.013538
-0.0145006
-0.0159241
-0.0167235
-0.0167266
-0.0165236
-0.0037557
-0.00362215
-0.00380986
-0.00536222
-0.00704564
-0.0070016
-0.00679447
-0.00834917
-0.0102604
-0.0106869
-0.010794
-0.0119482
-0.0133051
-0.0137328
-0.0138149
-0.0145786
-0.0158571
-0.0167409
-0.0169009
-0.0167548
-0.00393122
-0.00389237
-0.00406757
-0.00541368
-0.00713747
-0.00735662
-0.00711661
-0.00837007
-0.0102462
-0.0108997
-0.0110339
-0.0119774
-0.0132839
-0.0139033
-0.0140832
-0.0147042
-0.0158199
-0.0167334
-0.0170238
-0.0169468
-0.00410904
-0.00415302
-0.00434461
-0.00550386
-0.00720546
-0.00767504
-0.00747476
-0.00844753
-0.0102167
-0.0110675
-0.011277
-0.0120507
-0.0132641
-0.0140264
-0.0143296
-0.0148649
-0.0158197
-0.0167131
-0.0171072
-0.0171
-0.00429007
-0.00439876
-0.00463724
-0.0056348
-0.00726631
-0.00795116
-0.00784166
-0.00858166
-0.0101935
-0.0111929
-0.0115101
-0.0121619
-0.013259
-0.0141091
-0.0145421
-0.0150461
-0.0158612
-0.0166952
-0.0171587
-0.017221
-0.00447939
-0.00464274
-0.00492909
-0.00579919
-0.00733111
-0.00818612
-0.00819919
-0.00876527
-0.0101938
-0.0112848
-0.0117253
-0.0123027
-0.0132781
-0.0141641
-0.0147121
-0.0152288
-0.0159428
-0.0166971
-0.0171888
-0.0173131
-0.00467749
-0.00488022
-0.00522032
-0.00599307
-0.0074089
-0.00838381
-0.0085372
-0.00898785
-0.0102259
-0.0113545
-0.0119179
-0.0124636
-0.0133247
-0.0142056
-0.0148407
-0.0153935
-0.0160495
-0.0167294
-0.0172144
-0.0173817
-0.00488403
-0.00511499
-0.0055066
-0.00620995
-0.00750505
-0.00855295
-0.00884919
-0.00923668
-0.0102931
-0.0114122
-0.0120847
-0.0126347
-0.0133989
-0.0142454
-0.0149382
-0.0155315
-0.0161592
-0.0167861
-0.0172493
-0.0174363
-0.00509972
-0.00534866
-0.00578556
-0.00644381
-0.00762234
-0.00870437
-0.00913296
-0.0094993
-0.0103967
-0.0114678
-0.0122245
-0.012805
-0.0134981
-0.0142915
-0.0150138
-0.0156452
-0.0162591
-0.0168503
-0.0172944
-0.0174859
-0.00532385
-0.00558301
-0.00605596
-0.00668912
-0.00776197
-0.00884632
-0.00938972
-0.0097654
-0.0105318
-0.0115296
-0.0123396
-0.0129622
-0.0136143
-0.0143499
-0.0150723
-0.0157374
-0.01635
-0.0169141
-0.0173456
-0.0175377
-0.00555509
-0.00581768
-0.00631982
-0.00694206
-0.00792332
-0.0089845
-0.00961992
-0.0100269
-0.0106912
-0.011603
-0.0124364
-0.0131005
-0.0137368
-0.0144256
-0.0151236
-0.0158052
-0.0164302
-0.0169765
-0.0173977
-0.0175925
-0.00579286
-0.00605565
-0.00657659
-0.00719775
-0.00810363
-0.00912477
-0.00982646
-0.0102771
-0.010869
-0.0116922
-0.0125219
-0.0132195
-0.0138543
-0.0145135
-0.0151803
-0.0158511
-0.0164889
-0.0170319
-0.0174435
-0.0176442
-0.0060361
-0.00629499
-0.00682783
-0.00745356
-0.00829971
-0.00927118
-0.0100146
-0.0105123
-0.0110583
-0.0117979
-0.0126011
-0.0133195
-0.0139592
-0.0146002
-0.0152446
-0.0158898
-0.0165235
-0.017073
-0.017481
-0.0176881
-0.00628387
-0.00653966
-0.0070738
-0.00770598
-0.00850857
-0.00942658
-0.0101884
-0.0107284
-0.0112498
-0.0119184
-0.012679
-0.0134019
-0.0140501
-0.0146772
-0.0153058
-0.0159295
-0.0165429
-0.0170947
-0.0175061
-0.0177201
-0.00653416
-0.0067853
-0.00731773
-0.00795472
-0.00872533
-0.00959223
-0.0103541
-0.0109255
-0.0114356
-0.0120494
-0.0127604
-0.0134689
-0.0141238
-0.0147426
-0.0153527
-0.0159612
-0.0165529
-0.0170967
-0.0175138
-0.0177361
-0.00678697
-0.00703293
-0.00755973
-0.00819798
-0.00894589
-0.00976706
-0.0105172
-0.0111084
-0.0116128
-0.012183
-0.0128447
-0.0135231
-0.0141734
-0.0147909
-0.0153822
-0.0159732
-0.0165497
-0.0170805
-0.0175006
-0.0177321
-0.00704207
-0.00728663
-0.00779872
-0.00843444
-0.00916778
-0.00994998
-0.0106791
-0.0112787
-0.0117812
-0.0123155
-0.0129286
-0.0135707
-0.0141995
-0.0148121
-0.0153911
-0.0159582
-0.0165217
-0.0170425
-0.0174625
-0.0177028
-0.00729518
-0.00753459
-0.00804016
-0.00866813
-0.00938728
-0.010138
-0.0108434
-0.0114388
-0.0119398
-0.0124468
-0.0130092
-0.0136107
-0.0142076
-0.0147984
-0.0153675
-0.0159112
-0.0164567
-0.0169708
-0.0173914
-0.0176426
-0.00754824
-0.00778429
-0.0082805
-0.00889773
-0.00960221
-0.0103264
-0.0110116
-0.0115962
-0.0120891
-0.0125736
-0.0130855
-0.0136365
-0.0141945
-0.0147455
-0.0152954
-0.0158204
-0.0163431
-0.0168518
-0.0172767
-0.0175418
-0.00780371
-0.00803515
-0.00851745
-0.00912066
-0.00981243
-0.0105139
-0.0111799
-0.0117567
-0.0122406
-0.0126988
-0.01316
-0.0136449
-0.014143
-0.0146354
-0.0151447
-0.0156574
-0.0161659
-0.0166733
-0.0171083
-0.0173934
-0.00805453
-0.00827943
-0.0087554
-0.00934201
-0.0100158
-0.0106997
-0.011346
-0.0119171
-0.0124088
-0.0128518
-0.0132518
-0.0136403
-0.0140337
-0.0144214
-0.0148271
-0.0152733
-0.0157422
-0.0162459
-0.0167472
-0.0171593
-0.00830132
-0.00852376
-0.00899435
-0.00956434
-0.0102165
-0.010885
-0.0115193
-0.0120782
-0.0125867
-0.0130889
-0.0135178
-0.0138368
-0.0140832
-0.0143285
-0.0145946
-0.0148646
-0.0150794
-0.0152083
-0.0152803
-0.0153625
-0.00854961
-0.0087444
-0.00918669
-0.00972725
-0.0103611
-0.0110434
-0.0117125
-0.0122626
-0.012639
-0.0129506
-0.0132579
-0.0135923
-0.0139259
-0.0142295
-0.014479
-0.0146774
-0.0148421
-0.0149919
-0.0151693
-0.0154281
-0.00886475
-0.00908808
-0.00944533
-0.00988025
-0.0104344
-0.0110398
-0.0116191
-0.0121232
-0.0125585
-0.0129528
-0.0133342
-0.0137283
-0.0140904
-0.0143992
-0.0146436
-0.0148098
-0.0149031
-0.0149349
-0.0149521
-0.0150381
-0.00900037
-0.00915174
-0.00952128
-0.00997008
-0.0104984
-0.0110683
-0.0116324
-0.0121431
-0.0125954
-0.0130037
-0.0133591
-0.0136907
-0.0139993
-0.0142784
-0.0145712
-0.0149211
-0.0153632
-0.0159036
-0.0164899
-0.0170444
-0.00926886
-0.00945174
-0.00972831
-0.0100669
-0.0105323
-0.0110758
-0.0116337
-0.0121554
-0.0126189
-0.0130383
-0.0134211
-0.0137684
-0.014084
-0.014343
-0.0145227
-0.0146415
-0.0146947
-0.0147193
-0.0147646
-0.0149188
-0.00939889
-0.00955461
-0.00980593
-0.01011
-0.0105431
-0.0110747
-0.0116312
-0.0121557
-0.0126313
-0.0130611
-0.0134564
-0.0138039
-0.0140902
-0.0143234
-0.0144891
-0.0146259
-0.0147604
-0.014923
-0.0151455
-0.015485
-0.00414928
-0.00943763
-0.0168397
-0.0224573
-0.0241214
-0.0234177
-0.0224312
-0.0218891
-0.0217985
-0.0219085
-0.0220113
-0.0220339
-0.0219462
-0.0218287
-0.0218729
-0.022112
-0.0223763
-0.0225128
-0.0224712
-0.0223732
-0.0224161
-0.0225848
-0.022723
-0.0228213
-0.0229682
-0.0231548
-0.0233324
-0.0235372
-0.0237993
-0.0240546
-0.0242763
-0.0244993
-0.0247238
-0.0249248
-0.0251458
-0.0254125
-0.0256893
-0.0259338
-0.0261717
-0.0264649
-0.0267812
-0.0270408
-0.0272774
-0.0275565
-0.027902
-0.0282857
-0.028698
-0.02913
-0.0295158
-0.0297953
-0.0300272
-0.0303097
-0.0306279
-0.0309322
-0.0312392
-0.0316152
-0.0320649
-0.0325304
-0.0329531
-0.033317
-0.033697
-0.0341013
-0.034528
-0.0349641
-0.0353913
-0.0358066
-0.0362597
-0.0367299
-0.0371711
-0.0376266
-0.0381037
-0.0385735
-0.0390278
-0.0395123
-0.040002
-0.0405048
-0.0409827
-0.0414837
-0.0419949
-0.0425245
-0.0430345
-0.0435565
-0.0441056
-0.0446919
-0.045306
-0.0458845
-0.0464857
-0.0470514
-0.0476804
-0.0483053
-0.0489418
-0.0496219
-0.0502705
-0.0509395
-0.0516269
-0.0522682
-0.0530071
-0.0537085
-0.0543878
-0.0552022
-0.00480861
-0.0095731
-0.0167515
-0.0223098
-0.0240331
-0.0233745
-0.0224039
-0.0218707
-0.021786
-0.0218996
-0.0220045
-0.0220286
-0.0219416
-0.021824
-0.0218682
-0.0221078
-0.0223728
-0.0225099
-0.0224687
-0.0223707
-0.0224137
-0.0225828
-0.0227213
-0.0228196
-0.0229666
-0.0231534
-0.023331
-0.0235359
-0.0237981
-0.0240535
-0.0242752
-0.0244982
-0.0247227
-0.0249237
-0.0251447
-0.0254115
-0.0256883
-0.0259329
-0.0261708
-0.026464
-0.0267804
-0.0270401
-0.0272767
-0.0275558
-0.0279013
-0.0282851
-0.0286974
-0.0291294
-0.0295153
-0.0297948
-0.0300268
-0.0303093
-0.0306275
-0.0309318
-0.0312389
-0.0316148
-0.0320646
-0.0325301
-0.0329528
-0.0333167
-0.0336968
-0.034101
-0.0345277
-0.0349638
-0.0353911
-0.0358063
-0.0362595
-0.0367297
-0.0371709
-0.0376264
-0.0381035
-0.0385734
-0.0390276
-0.0395121
-0.0400018
-0.0405047
-0.0409825
-0.0414836
-0.0419947
-0.0425243
-0.0430344
-0.0435563
-0.0441054
-0.0446918
-0.0453059
-0.0458844
-0.0464856
-0.0470513
-0.0476803
-0.0483052
-0.0489417
-0.0496218
-0.0502704
-0.0509394
-0.0516268
-0.0522681
-0.0530071
-0.0537085
-0.0543877
-0.0552022
-0.00543841
-0.00971726
-0.0165823
-0.0220454
-0.0238876
-0.0233227
-0.0223763
-0.0218477
-0.0217676
-0.0218856
-0.021994
-0.0220207
-0.0219359
-0.0218196
-0.0218644
-0.0221041
-0.0223693
-0.0225068
-0.022466
-0.0223681
-0.0224113
-0.0225807
-0.0227195
-0.0228179
-0.0229651
-0.0231521
-0.0233298
-0.0235347
-0.023797
-0.0240525
-0.0242742
-0.0244972
-0.0247218
-0.0249229
-0.0251438
-0.0254106
-0.0256875
-0.0259321
-0.02617
-0.0264632
-0.0267797
-0.0270395
-0.027276
-0.0275551
-0.0279007
-0.0282845
-0.0286969
-0.029129
-0.029515
-0.0297945
-0.0300263
-0.0303088
-0.0306271
-0.0309315
-0.0312385
-0.0316144
-0.0320642
-0.0325298
-0.0329526
-0.0333165
-0.0336965
-0.0341008
-0.0345275
-0.0349636
-0.0353909
-0.0358062
-0.0362593
-0.0367296
-0.0371707
-0.0376262
-0.0381033
-0.0385732
-0.0390274
-0.039512
-0.0400017
-0.0405045
-0.0409824
-0.0414834
-0.0419946
-0.0425242
-0.0430343
-0.0435562
-0.0441053
-0.0446917
-0.0453058
-0.0458843
-0.0464855
-0.0470512
-0.0476802
-0.0483051
-0.0489416
-0.0496218
-0.0502703
-0.0509393
-0.0516268
-0.052268
-0.053007
-0.0537084
-0.0543876
-0.0552022
-0.00603076
-0.00986034
-0.0163666
-0.0217116
-0.0236887
-0.0232502
-0.0223361
-0.0218121
-0.0217381
-0.021863
-0.0219761
-0.0220066
-0.0219261
-0.0218138
-0.0218607
-0.0221003
-0.0223644
-0.0225018
-0.022462
-0.0223651
-0.0224086
-0.0225781
-0.022717
-0.0228156
-0.0229631
-0.0231504
-0.0233283
-0.0235334
-0.023796
-0.0240516
-0.0242733
-0.0244963
-0.024721
-0.024922
-0.0251429
-0.0254097
-0.0256866
-0.0259313
-0.0261692
-0.0264624
-0.026779
-0.0270388
-0.0272753
-0.0275544
-0.0279
-0.0282838
-0.0286963
-0.0291286
-0.0295146
-0.0297941
-0.0300259
-0.0303084
-0.0306268
-0.0309311
-0.0312381
-0.031614
-0.0320639
-0.0325296
-0.0329524
-0.0333162
-0.0336962
-0.0341006
-0.0345273
-0.0349634
-0.0353907
-0.0358059
-0.0362591
-0.0367294
-0.0371706
-0.0376261
-0.0381032
-0.0385731
-0.0390273
-0.0395118
-0.0400015
-0.0405044
-0.0409823
-0.0414833
-0.0419944
-0.0425241
-0.0430341
-0.0435561
-0.0441052
-0.0446916
-0.0453057
-0.0458842
-0.0464854
-0.0470511
-0.0476801
-0.0483051
-0.0489415
-0.0496217
-0.0502703
-0.0509393
-0.0516267
-0.0522679
-0.0530069
-0.0537083
-0.0543875
-0.0552024
-0.00660462
-0.0100148
-0.0161406
-0.0213571
-0.0234677
-0.023167
-0.022289
-0.0217669
-0.0216982
-0.0218311
-0.0219497
-0.0219846
-0.0219101
-0.021805
-0.0218563
-0.0220956
-0.0223571
-0.0224935
-0.0224557
-0.0223614
-0.0224057
-0.0225748
-0.0227135
-0.0228126
-0.0229604
-0.0231478
-0.023326
-0.0235317
-0.0237947
-0.0240505
-0.0242722
-0.0244953
-0.0247202
-0.0249213
-0.0251421
-0.0254088
-0.0256857
-0.0259305
-0.0261684
-0.0264615
-0.0267781
-0.027038
-0.0272745
-0.0275536
-0.0278991
-0.028283
-0.0286957
-0.0291281
-0.0295143
-0.0297936
-0.0300253
-0.0303079
-0.0306263
-0.0309307
-0.0312376
-0.0316135
-0.0320635
-0.0325293
-0.0329522
-0.0333159
-0.0336959
-0.0341003
-0.034527
-0.0349632
-0.0353905
-0.0358057
-0.0362589
-0.0367292
-0.0371704
-0.0376259
-0.038103
-0.0385729
-0.0390271
-0.0395116
-0.0400014
-0.0405043
-0.0409821
-0.0414831
-0.0419943
-0.042524
-0.043034
-0.0435559
-0.044105
-0.0446914
-0.0453056
-0.0458841
-0.0464853
-0.047051
-0.04768
-0.048305
-0.0489414
-0.0496216
-0.0502702
-0.0509392
-0.0516266
-0.0522678
-0.0530068
-0.0537083
-0.0543874
-0.0552027
-0.00716307
-0.0101872
-0.0159227
-0.0210007
-0.0232363
-0.0230794
-0.022241
-0.021718
-0.0216525
-0.0217932
-0.0219174
-0.0219564
-0.021889
-0.0217932
-0.0218507
-0.0220896
-0.0223469
-0.0224815
-0.0224468
-0.0223568
-0.0224024
-0.0225706
-0.0227091
-0.0228089
-0.0229572
-0.0231445
-0.0233229
-0.0235292
-0.0237929
-0.0240489
-0.0242707
-0.0244941
-0.0247194
-0.0249208
-0.0251414
-0.0254078
-0.0256847
-0.0259297
-0.0261677
-0.0264607
-0.0267771
-0.027037
-0.0272736
-0.0275526
-0.0278979
-0.0282819
-0.0286949
-0.0291276
-0.0295138
-0.029793
-0.0300247
-0.0303073
-0.0306258
-0.0309302
-0.031237
-0.0316129
-0.032063
-0.032529
-0.0329519
-0.0333156
-0.0336955
-0.0340999
-0.0345267
-0.0349629
-0.0353902
-0.0358055
-0.0362586
-0.036729
-0.0371702
-0.0376257
-0.0381029
-0.0385728
-0.0390269
-0.0395115
-0.0400012
-0.0405041
-0.040982
-0.041483
-0.0419941
-0.0425238
-0.0430339
-0.0435558
-0.0441049
-0.0446913
-0.0453055
-0.045884
-0.0464852
-0.0470509
-0.0476798
-0.0483049
-0.0489413
-0.0496215
-0.0502701
-0.0509391
-0.0516266
-0.0522678
-0.0530067
-0.0537083
-0.0543874
-0.0552031
-0.00770299
-0.0103788
-0.0157204
-0.0206467
-0.0229949
-0.0229863
-0.0221929
-0.0216676
-0.0216031
-0.0217516
-0.0218818
-0.021925
-0.0218648
-0.0217793
-0.0218438
-0.0220819
-0.0223341
-0.0224664
-0.0224356
-0.0223513
-0.0223988
-0.0225657
-0.0227039
-0.022805
-0.0229538
-0.0231407
-0.0233191
-0.0235261
-0.0237903
-0.0240466
-0.0242687
-0.0244924
-0.0247183
-0.0249203
-0.0251409
-0.0254067
-0.0256835
-0.025929
-0.0261673
-0.0264599
-0.0267759
-0.0270359
-0.0272727
-0.0275514
-0.0278965
-0.0282805
-0.028694
-0.029127
-0.0295131
-0.0297923
-0.030024
-0.0303067
-0.0306252
-0.0309296
-0.0312364
-0.0316122
-0.0320624
-0.0325286
-0.0329515
-0.0333151
-0.033695
-0.0340995
-0.0345263
-0.0349626
-0.0353899
-0.0358051
-0.0362584
-0.0367288
-0.0371699
-0.0376254
-0.0381027
-0.0385726
-0.0390267
-0.0395113
-0.040001
-0.040504
-0.0409818
-0.0414828
-0.041994
-0.0425237
-0.0430337
-0.0435556
-0.0441047
-0.0446911
-0.0453053
-0.0458838
-0.0464851
-0.0470507
-0.0476797
-0.0483048
-0.0489411
-0.0496214
-0.05027
-0.050939
-0.0516265
-0.0522677
-0.0530066
-0.0537082
-0.0543873
-0.0552037
-0.00822178
-0.0105895
-0.015537
-0.0202957
-0.0227413
-0.022885
-0.0221442
-0.0216164
-0.0215508
-0.0217071
-0.0218439
-0.0218916
-0.0218388
-0.021764
-0.0218356
-0.0220729
-0.0223194
-0.0224491
-0.0224226
-0.0223449
-0.0223948
-0.0225603
-0.0226983
-0.022801
-0.0229504
-0.0231368
-0.0233153
-0.0235228
-0.0237871
-0.0240435
-0.0242657
-0.02449
-0.0247168
-0.0249197
-0.0251403
-0.0254054
-0.0256819
-0.0259282
-0.0261671
-0.0264592
-0.0267745
-0.0270347
-0.027272
-0.0275504
-0.0278947
-0.0282787
-0.0286927
-0.029126
-0.0295121
-0.0297913
-0.0300232
-0.030306
-0.0306246
-0.0309289
-0.0312357
-0.0316114
-0.0320617
-0.032528
-0.0329511
-0.0333145
-0.0336944
-0.034099
-0.0345258
-0.0349621
-0.0353894
-0.0358048
-0.036258
-0.0367285
-0.0371696
-0.0376252
-0.0381024
-0.0385724
-0.0390265
-0.0395111
-0.0400008
-0.0405038
-0.0409816
-0.0414826
-0.0419938
-0.0425235
-0.0430336
-0.0435554
-0.0441045
-0.044691
-0.0453052
-0.0458837
-0.0464849
-0.0470506
-0.0476795
-0.0483046
-0.048941
-0.0496213
-0.0502699
-0.0509389
-0.0516264
-0.0522676
-0.0530064
-0.0537082
-0.0543874
-0.0552044
-0.00871796
-0.010817
-0.0153737
-0.0199485
-0.0224745
-0.0227735
-0.0220943
-0.0215649
-0.0214961
-0.0216597
-0.021804
-0.0218566
-0.0218115
-0.0217474
-0.0218265
-0.0220631
-0.0223036
-0.0224303
-0.0224083
-0.0223379
-0.0223904
-0.0225546
-0.0226924
-0.0227969
-0.0229471
-0.0231332
-0.0233118
-0.0235197
-0.0237838
-0.0240397
-0.0242619
-0.0244867
-0.0247148
-0.024919
-0.0251398
-0.0254038
-0.02568
-0.0259273
-0.026167
-0.0264584
-0.0267729
-0.0270336
-0.0272716
-0.0275496
-0.027893
-0.0282767
-0.0286912
-0.0291246
-0.0295105
-0.0297898
-0.0300222
-0.0303053
-0.030624
-0.0309284
-0.031235
-0.0316106
-0.0320609
-0.0325274
-0.0329505
-0.0333138
-0.0336937
-0.0340983
-0.0345252
-0.0349615
-0.0353888
-0.0358043
-0.0362576
-0.036728
-0.0371692
-0.0376249
-0.0381022
-0.0385721
-0.0390262
-0.0395108
-0.0400006
-0.0405036
-0.0409815
-0.0414824
-0.0419936
-0.0425234
-0.0430334
-0.0435552
-0.0441043
-0.0446908
-0.0453051
-0.0458835
-0.0464848
-0.0470504
-0.0476793
-0.0483045
-0.0489408
-0.0496212
-0.0502698
-0.0509388
-0.0516263
-0.0522676
-0.0530063
-0.0537083
-0.0543875
-0.0552052
-0.00919007
-0.0110576
-0.0152315
-0.0196073
-0.0221951
-0.0226504
-0.0220424
-0.0215138
-0.0214394
-0.0216097
-0.0217622
-0.0218203
-0.0217828
-0.0217298
-0.0218167
-0.0220527
-0.022287
-0.0224104
-0.0223929
-0.0223301
-0.0223857
-0.0225485
-0.0226862
-0.0227926
-0.0229439
-0.0231297
-0.0233085
-0.0235169
-0.0237807
-0.0240357
-0.0242575
-0.0244826
-0.0247121
-0.0249181
-0.0251391
-0.025402
-0.0256776
-0.0259261
-0.0261669
-0.0264576
-0.026771
-0.0270323
-0.0272714
-0.0275492
-0.0278915
-0.0282748
-0.0286898
-0.029123
-0.0295084
-0.0297877
-0.0300207
-0.0303044
-0.0306233
-0.0309279
-0.0312345
-0.0316098
-0.03206
-0.0325266
-0.0329498
-0.0333129
-0.0336928
-0.0340975
-0.0345245
-0.0349607
-0.0353881
-0.0358036
-0.036257
-0.0367274
-0.0371686
-0.0376245
-0.0381018
-0.0385718
-0.0390259
-0.0395105
-0.0400004
-0.0405034
-0.0409813
-0.0414822
-0.0419934
-0.0425232
-0.0430333
-0.043555
-0.0441041
-0.0446906
-0.0453049
-0.0458834
-0.0464846
-0.0470502
-0.0476791
-0.0483043
-0.0489407
-0.049621
-0.0502697
-0.0509386
-0.0516262
-0.0522676