/*--------------------------------*- C++ -*----------------------------------*\
| =========                 |                                                 |
| \\      /  F ield         | OpenFOAM: The Open Source CFD Toolbox           |
|  \\    /   O peration     | Version:  2506                                  |
|   \\  /    A nd           | Website:  www.openfoam.com                      |
|    \\/     M anipulation  |                                                 |
\*---------------------------------------------------------------------------*/
FoamFile
{
    version     2.0;
    format      ascii;
    arch        "LSB;label=32;scalar=64";
    class       surfaceScalarField;
    location    "6.85";
    object      phi;
}
// * * * * * * * * * * * * * * * * * * * * * * * * * * * * * * * * * * * * * //

dimensions      [0 3 -1 0 0 0 0];

oriented        oriented;

internalField   nonuniform List<scalar> 
19000
(
1.23555e-06
4.73439e-07
1.02931e-06
1.05951e-07
1.09794e-06
-6.76493e-07
1.26327e-06
1.52096e-06
1.15897e-06
7.55037e-07
1.0839e-06
-2.91252e-07
1.18324e-06
3.32797e-07
1.11678e-06
4.26892e-07
1.14177e-06
6.33638e-07
1.16385e-06
9.06983e-07
1.13602e-06
6.71367e-08
1.15975e-06
4.35737e-07
1.15266e-06
2.57012e-07
1.14047e-06
4.59773e-07
1.13009e-06
2.90897e-07
1.12895e-06
2.5305e-07
1.13694e-06
1.01133e-07
1.14049e-06
8.23089e-08
1.15075e-06
8.96661e-08
9.23983e-08
1.1272e-06
1.2944e-06
4.03299e-07
1.0775e-06
3.22855e-07
1.15514e-06
-7.5414e-07
1.33187e-06
1.34424e-06
1.2242e-06
8.6271e-07
1.14241e-06
-2.09467e-07
1.24343e-06
2.31777e-07
1.17034e-06
4.99984e-07
1.19543e-06
6.08548e-07
1.23078e-06
8.71633e-07
1.19806e-06
9.9852e-08
1.22682e-06
4.06981e-07
1.21278e-06
2.71048e-07
1.21169e-06
4.6087e-07
1.18551e-06
3.17075e-07
1.20124e-06
2.37324e-07
1.18741e-06
1.14955e-07
1.21281e-06
5.69095e-08
1.19499e-06
1.07491e-07
7.46079e-08
1.21278e-06
1.35508e-06
3.31003e-07
1.13819e-06
5.39747e-07
1.2124e-06
-8.28357e-07
1.40535e-06
1.15129e-06
1.2999e-06
9.68162e-07
1.20846e-06
-1.18024e-07
1.30539e-06
1.34844e-07
1.24201e-06
5.6337e-07
1.25119e-06
5.99365e-07
1.31124e-06
8.11581e-07
1.26721e-06
1.43878e-07
1.30177e-06
3.72428e-07
1.27684e-06
2.95978e-07
1.28574e-06
4.51967e-07
1.24993e-06
3.52882e-07
1.26423e-06
2.23028e-07
1.25011e-06
1.29073e-07
1.26636e-06
4.06592e-08
1.26295e-06
1.10904e-07
7.68222e-08
1.26073e-06
1.41812e-06
2.56988e-07
1.2137e-06
7.44161e-07
1.27484e-06
-8.89494e-07
1.48178e-06
9.44356e-07
1.38305e-06
1.06688e-06
1.284e-06
-1.89697e-08
1.36992e-06
4.89208e-08
1.32848e-06
6.04809e-07
1.31444e-06
6.13412e-07
1.3927e-06
7.33315e-07
1.34142e-06
1.95157e-07
1.36911e-06
3.44742e-07
1.34399e-06
3.21094e-07
1.35014e-06
4.45823e-07
1.32019e-06
3.82824e-07
1.32218e-06
2.21045e-07
1.31488e-06
1.36371e-07
1.32113e-06
3.44126e-08
1.32525e-06
1.06776e-07
8.17165e-08
1.32036e-06
1.48233e-06
1.83007e-07
1.30606e-06
9.20437e-07
1.34204e-06
-9.25472e-07
1.55401e-06
7.32383e-07
1.46971e-06
1.15118e-06
1.36837e-06
8.23672e-08
1.43443e-06
-1.714e-08
1.42028e-06
6.18961e-07
1.3876e-06
6.4609e-07
1.46517e-06
6.55747e-07
1.41813e-06
2.42196e-07
1.42937e-06
3.33504e-07
1.4118e-06
3.38663e-07
1.41234e-06
4.45286e-07
1.39176e-06
4.03403e-07
1.38556e-06
2.27243e-07
1.37976e-06
1.42176e-07
1.38137e-06
3.27981e-08
1.38589e-06
1.02256e-07
8.53784e-08
1.38223e-06
1.5462e-06
1.12481e-07
1.41154e-06
1.0551e-06
1.41268e-06
-9.26612e-07
1.61501e-06
5.30055e-07
1.55542e-06
1.21077e-06
1.45826e-06
1.79528e-07
1.49684e-06
-5.57251e-08
1.50521e-06
6.10595e-07
1.4692e-06
6.82101e-07
1.52963e-06
5.95312e-07
1.49449e-06
2.77337e-07
1.49055e-06
3.37447e-07
1.4797e-06
3.49509e-07
1.47849e-06
4.46494e-07
1.46502e-06
4.16881e-07
1.45612e-06
2.36134e-07
1.44879e-06
1.49509e-07
1.44665e-06
3.49368e-08
1.45005e-06
9.88552e-08
8.90281e-08
1.4464e-06
1.60882e-06
4.98772e-08
1.52137e-06
1.14255e-06
1.48595e-06
-8.91188e-07
1.6631e-06
3.52904e-07
1.63673e-06
1.23714e-06
1.5493e-06
2.6696e-07
1.55777e-06
-6.41921e-08
1.57848e-06
5.89883e-07
1.55363e-06
7.0695e-07
1.59185e-06
5.57092e-07
1.56823e-06
3.00949e-07
1.55665e-06
3.49032e-07
1.54894e-06
3.57222e-07
1.54906e-06
4.46371e-07
1.54094e-06
4.25003e-07
1.53227e-06
2.44801e-07
1.5235e-06
1.58277e-07
1.51743e-06
4.10062e-08
1.51899e-06
9.72993e-08
9.36321e-08
1.51438e-06
1.67088e-06
-8.69456e-10
1.62699e-06
1.18644e-06
1.56281e-06
-8.27006e-07
1.70376e-06
2.11951e-07
1.71232e-06
1.22858e-06
1.63872e-06
3.40569e-07
1.6207e-06
-4.61771e-08
1.64396e-06
5.66619e-07
1.63485e-06
7.16067e-07
1.65559e-06
5.36354e-07
1.6398e-06
3.16735e-07
1.62727e-06
3.61564e-07
1.62073e-06
3.6376e-07
1.62278e-06
4.4432e-07
1.61902e-06
4.28765e-07
1.61197e-06
2.5185e-07
1.60305e-06
1.67201e-07
1.59373e-06
5.03278e-08
1.59306e-06
9.7965e-08
9.9818e-08
1.58687e-06
1.73462e-06
-3.79107e-08
1.72478e-06
1.19628e-06
1.64525e-06
-7.47482e-07
1.74606e-06
1.11147e-07
1.78305e-06
1.19159e-06
1.72589e-06
3.97726e-07
1.68961e-06
-9.90189e-09
1.70889e-06
5.47347e-07
1.71083e-06
7.14126e-07
1.72255e-06
5.24631e-07
1.71229e-06
3.2699e-07
1.70177e-06
3.72093e-07
1.6958e-06
3.6973e-07
1.69919e-06
4.40921e-07
1.69889e-06
4.29073e-07
1.694e-06
2.56735e-07
1.68631e-06
1.74892e-07
1.67511e-06
6.15316e-08
1.67254e-06
1.00533e-07
1.07686e-07
1.66467e-06
1.80274e-06
-6.19301e-08
1.81611e-06
1.18291e-06
1.7343e-06
-6.65671e-07
1.79784e-06
4.76014e-08
1.85164e-06
1.13779e-06
1.8115e-06
4.37864e-07
1.7665e-06
3.50957e-08
1.77921e-06
5.34638e-07
1.78473e-06
7.08608e-07
1.79433e-06
5.15032e-07
1.78917e-06
3.32147e-07
1.78087e-06
3.8039e-07
1.77509e-06
3.75514e-07
1.77901e-06
4.36996e-07
1.78125e-06
4.26836e-07
1.77844e-06
2.59549e-07
1.77282e-06
1.80512e-07
1.76114e-06
7.32082e-08
1.75746e-06
1.04216e-07
1.1664e-07
1.74851e-06
1.87717e-06
-7.5354e-08
1.90442e-06
1.15567e-06
1.82914e-06
-5.90395e-07
1.86317e-06
1.35751e-08
1.92196e-06
1.079e-06
1.89684e-06
4.62987e-07
1.85102e-06
8.09071e-08
1.85808e-06
5.27586e-07
1.86221e-06
7.0447e-07
1.87283e-06
5.04418e-07
1.87245e-06
3.32526e-07
1.86567e-06
3.87168e-07
1.85978e-06
3.8141e-07
1.86353e-06
4.33244e-07
1.86745e-06
4.22919e-07
1.86619e-06
2.6081e-07
1.86275e-06
1.83946e-07
1.85158e-06
8.43799e-08
1.84757e-06
1.08222e-07
1.25679e-07
1.83853e-06
1.95857e-06
-8.10851e-08
1.99284e-06
1.1214e-06
1.92812e-06
-5.25679e-07
1.94223e-06
-5.27637e-10
1.99751e-06
1.02372e-06
1.9835e-06
4.76998e-07
1.94174e-06
1.22666e-07
1.94601e-06
5.23318e-07
1.94773e-06
7.02752e-07
1.95941e-06
4.92737e-07
1.96257e-06
3.29367e-07
1.95657e-06
3.93167e-07
1.95057e-06
3.87414e-07
1.95374e-06
4.30068e-07
1.9586e-06
4.18061e-07
1.95821e-06
2.61199e-07
1.95653e-06
1.85628e-07
1.94632e-06
9.45893e-08
1.94245e-06
1.12085e-07
1.33869e-07
1.93426e-06
2.0467e-06
-8.15918e-08
2.08361e-06
1.08448e-06
2.02999e-06
-4.72059e-07
2.03279e-06
-3.32122e-09
2.08029e-06
9.76208e-07
2.07318e-06
4.84109e-07
2.03742e-06
1.58428e-07
2.04185e-06
5.1889e-07
2.0426e-06
7.02004e-07
2.05411e-06
4.81223e-07
2.059e-06
3.24473e-07
2.05326e-06
3.98914e-07
2.04745e-06
3.93226e-07
2.04997e-06
4.27548e-07
2.05522e-06
4.1281e-07
2.05509e-06
2.61328e-07
2.05445e-06
1.86266e-07
2.04529e-06
1.03745e-07
2.04168e-06
1.15699e-07
1.40656e-07
2.03489e-06
2.14106e-06
-7.86482e-08
2.17827e-06
1.04727e-06
2.1343e-06
-4.28097e-07
2.13188e-06
-8.99429e-10
2.17078e-06
9.37308e-07
2.16734e-06
4.87546e-07
2.13751e-06
1.8826e-07
2.14382e-06
5.12582e-07
2.14555e-06
7.00273e-07
2.15576e-06
4.71012e-07
2.16086e-06
3.19374e-07
2.1551e-06
4.04673e-07
2.14993e-06
3.984e-07
2.15194e-06
4.25532e-07
2.15722e-06
4.07537e-07
2.15697e-06
2.61581e-07
2.15663e-06
1.86597e-07
2.14844e-06
1.1194e-07
2.14497e-06
1.19168e-07
1.45931e-07
2.13969e-06
2.24133e-06
-7.3494e-08
2.27787e-06
1.01073e-06
2.24126e-06
-3.91482e-07
2.23711e-06
3.25105e-09
2.26864e-06
9.05779e-07
2.26697e-06
4.89212e-07
2.242e-06
2.13233e-07
2.25046e-06
5.0412e-07
2.25447e-06
6.9626e-07
2.26284e-06
4.62644e-07
2.26733e-06
3.14886e-07
2.26151e-06
4.10494e-07
2.25737e-06
4.02538e-07
2.25916e-06
4.23743e-07
2.26422e-06
4.02473e-07
2.26375e-06
2.62051e-07
2.26313e-06
1.87218e-07
2.25575e-06
1.19326e-07
2.25228e-06
1.22634e-07
1.49921e-07
2.24829e-06
2.34743e-06
-6.70512e-08
2.38305e-06
9.75114e-07
2.35141e-06
-3.59836e-07
2.34711e-06
7.54714e-09
2.37329e-06
8.79595e-07
2.37248e-06
4.90021e-07
2.35113e-06
2.3459e-07
2.36111e-06
4.94135e-07
2.3678e-06
6.89567e-07
2.37426e-06
4.56183e-07
2.37794e-06
3.11213e-07
2.3721e-06
4.1633e-07
2.36922e-06
4.05417e-07
2.37114e-06
4.2183e-07
2.37588e-06
3.97725e-07
2.37536e-06
2.62574e-07
2.37412e-06
1.88455e-07
2.36736e-06
1.26091e-07
2.36383e-06
1.26162e-07
1.53021e-07
2.36073e-06
2.45937e-06
-6.00235e-08
2.494e-06
9.40484e-07
2.46545e-06
-3.31285e-07
2.46149e-06
1.15086e-08
2.48424e-06
8.56839e-07
2.4839e-06
4.9036e-07
2.46531e-06
2.53187e-07
2.47599e-06
4.83453e-07
2.48505e-06
6.80508e-07
2.48969e-06
4.51542e-07
2.49266e-06
3.08241e-07
2.48686e-06
4.22125e-07
2.48526e-06
4.07016e-07
2.48771e-06
4.19381e-07
2.49214e-06
3.93299e-07
2.49185e-06
2.62863e-07
2.48996e-06
1.90347e-07
2.48355e-06
1.32497e-07
2.47999e-06
1.29725e-07
1.5563e-07
2.47738e-06
2.57718e-06
-5.29132e-08
2.61074e-06
9.06933e-07
2.58408e-06
-3.04632e-07
2.58041e-06
1.51812e-08
2.60118e-06
8.36073e-07
2.60116e-06
4.90378e-07
2.58504e-06
2.69303e-07
2.59581e-06
4.72684e-07
2.60652e-06
6.69797e-07
2.60934e-06
4.48723e-07
2.6118e-06
3.05782e-07
2.60615e-06
4.27774e-07
2.60572e-06
4.07452e-07
2.60915e-06
4.15949e-07
2.6133e-06
3.89149e-07
2.61346e-06
2.62704e-07
2.61107e-06
1.92735e-07
2.60468e-06
1.38881e-07
2.60115e-06
1.33256e-07
1.58048e-07
2.59874e-06
2.70096e-06
-4.60441e-08
2.73338e-06
8.74514e-07
2.7079e-06
-2.79149e-07
2.70426e-06
1.88154e-08
2.72409e-06
8.16247e-07
2.72434e-06
4.9013e-07
2.71075e-06
2.8289e-07
2.72123e-06
4.622e-07
2.73282e-06
6.58205e-07
2.73373e-06
4.47813e-07
2.73585e-06
3.03671e-07
2.73056e-06
4.33062e-07
2.73109e-06
4.06921e-07
2.7359e-06
4.11141e-07
2.73981e-06
3.85236e-07
2.74041e-06
2.621e-07
2.73778e-06
1.95369e-07
2.73108e-06
1.45583e-07
2.7276e-06
1.36729e-07
1.604e-07
2.72525e-06
2.83084e-06
-3.96147e-08
2.8622e-06
8.43148e-07
2.83736e-06
-2.54301e-07
2.83345e-06
2.27236e-08
2.85325e-06
7.96449e-07
2.8537e-06
4.89676e-07
2.84261e-06
2.93979e-07
2.85253e-06
4.52279e-07
2.86443e-06
6.46304e-07
2.86346e-06
4.4879e-07
2.86535e-06
3.01776e-07
2.86073e-06
4.37683e-07
2.86193e-06
4.05725e-07
2.86833e-06
4.04739e-07
2.87202e-06
3.81544e-07
2.87285e-06
2.61269e-07
2.87027e-06
1.97955e-07
2.86301e-06
1.52835e-07
2.85952e-06
1.40222e-07
1.62606e-07
2.85732e-06
2.96703e-06
-3.37515e-08
2.99751e-06
8.1267e-07
2.9729e-06
-2.29685e-07
2.9684e-06
2.722e-08
2.98902e-06
7.75829e-07
2.98955e-06
4.89141e-07
2.98067e-06
3.02862e-07
2.98976e-06
4.43186e-07
3.00168e-06
6.34383e-07
2.9991e-06
4.51374e-07
3.0009e-06
2.99975e-07
2.99725e-06
4.41335e-07
2.99868e-06
4.04297e-07
3.00663e-06
3.9678e-07
3.01014e-06
3.78042e-07
3.01084e-06
2.60562e-07
3.00864e-06
2.00161e-07
3.00083e-06
1.60646e-07
2.9971e-06
1.43945e-07
1.64413e-07
2.9953e-06
3.1098e-06
-2.85431e-08
3.13951e-06
7.82957e-07
3.11495e-06
-2.05127e-07
3.10959e-06
3.25787e-08
3.1317e-06
7.53727e-07
3.13212e-06
4.88713e-07
3.12499e-06
3.09994e-07
3.13309e-06
4.35091e-07
3.14494e-06
6.22534e-07
3.14124e-06
4.5507e-07
3.14303e-06
2.98185e-07
3.14058e-06
4.4379e-07
3.14172e-06
4.0315e-07
3.15098e-06
3.87527e-07
3.15436e-06
3.74658e-07
3.15458e-06
2.60346e-07
3.15306e-06
2.01673e-07
3.14493e-06
1.68776e-07
3.14067e-06
1.48211e-07
1.65524e-07
3.13956e-06
3.25943e-06
-2.40605e-08
3.28835e-06
7.5403e-07
3.26397e-06
-1.8074e-07
3.25755e-06
3.89983e-08
3.28147e-06
7.29804e-07
3.28159e-06
4.88592e-07
3.2758e-06
3.15787e-07
3.28291e-06
4.27984e-07
3.29466e-06
6.10776e-07
3.2904e-06
4.59334e-07
3.29218e-06
2.96402e-07
3.29108e-06
4.44889e-07
3.2915e-06
4.02734e-07
3.30166e-06
3.77372e-07
3.30506e-06
3.71258e-07
3.30446e-06
2.60939e-07
3.30381e-06
2.02328e-07
3.29584e-06
1.76745e-07
3.2907e-06
1.53346e-07
1.65821e-07
3.29041e-06
3.41624e-06
-2.03693e-08
3.44424e-06
7.26028e-07
3.42034e-06
-1.56833e-07
3.41274e-06
4.65898e-08
3.43851e-06
7.04038e-07
3.43817e-06
4.88929e-07
3.43343e-06
3.20531e-07
3.43976e-06
4.21657e-07
3.4514e-06
5.99134e-07
3.44701e-06
4.6372e-07
3.4487e-06
2.94715e-07
3.44905e-06
4.44535e-07
3.44847e-06
4.03315e-07
3.4591e-06
3.66739e-07
3.46271e-06
3.67656e-07
3.46109e-06
2.62553e-07
3.46121e-06
2.02205e-07
3.454e-06
1.83963e-07
3.4478e-06
1.59546e-07
1.65509e-07
3.44811e-06
3.58057e-06
-1.75305e-08
3.60747e-06
6.99126e-07
3.58441e-06
-1.33765e-07
3.57561e-06
5.5388e-08
3.60303e-06
6.76619e-07
3.60218e-06
4.89778e-07
3.59826e-06
3.24446e-07
3.60414e-06
4.15779e-07
3.61561e-06
5.87662e-07
3.61141e-06
4.67923e-07
3.61286e-06
2.93269e-07
3.6147e-06
4.42696e-07
3.61307e-06
4.0494e-07
3.62376e-06
3.56054e-07
3.62783e-06
3.63579e-07
3.62508e-06
2.65302e-07
3.62567e-06
2.01622e-07
3.61979e-06
1.89841e-07
3.61255e-06
1.66781e-07
1.65126e-07
3.61294e-06
3.75276e-06
-1.55889e-08
3.77843e-06
6.73458e-07
3.7565e-06
-1.11832e-07
3.74651e-06
6.53729e-08
3.77531e-06
6.47826e-07
3.77402e-06
4.9107e-07
3.77069e-06
3.27775e-07
3.77648e-06
4.0998e-07
3.78772e-06
5.76424e-07
3.78387e-06
4.71771e-07
3.78496e-06
2.92187e-07
3.78825e-06
4.39403e-07
3.7857e-06
4.07486e-07
3.79604e-06
3.45719e-07
3.80086e-06
3.58759e-07
3.79705e-06
2.69112e-07
3.79757e-06
2.01098e-07
3.79349e-06
1.93926e-07
3.78557e-06
1.74702e-07
1.65424e-07
3.78527e-06
3.93315e-06
-1.45558e-08
3.95753e-06
6.49084e-07
3.93694e-06
-9.12486e-08
3.92583e-06
7.64852e-08
3.95569e-06
6.17969e-07
3.95413e-06
4.92626e-07
3.95107e-06
3.30835e-07
3.95714e-06
4.03918e-07
3.9681e-06
5.65459e-07
3.96466e-06
4.7521e-07
3.96531e-06
2.91537e-07
3.96997e-06
4.34744e-07
3.96673e-06
4.10725e-07
3.97635e-06
3.361e-07
3.98214e-06
3.52971e-07
3.97749e-06
2.73762e-07
3.97743e-06
2.01155e-07
3.97528e-06
1.96077e-07
3.96732e-06
1.82661e-07
1.67115e-07
3.96563e-06
4.12209e-06
-1.43994e-08
4.14517e-06
6.26007e-07
4.12609e-06
-7.21674e-08
4.11395e-06
8.86232e-08
4.14454e-06
5.87378e-07
4.143e-06
4.94169e-07
4.13982e-06
3.34015e-07
4.14643e-06
3.97304e-07
4.15714e-06
5.54754e-07
4.15407e-06
4.78284e-07
4.15427e-06
2.91328e-07
4.16021e-06
4.28809e-07
4.15651e-06
4.14421e-07
4.16511e-06
3.27499e-07
4.172e-06
3.46087e-07
4.16683e-06
2.78933e-07
4.16578e-06
2.022e-07
4.16536e-06
1.96497e-07
4.15819e-06
1.89829e-07
1.7058e-07
4.15473e-06
4.31995e-06
-1.50507e-08
4.34176e-06
6.04201e-07
4.3243e-06
-5.47077e-08
4.31129e-06
1.01629e-07
4.34225e-06
5.56418e-07
4.34109e-06
4.95337e-07
4.33737e-06
3.37736e-07
4.34472e-06
3.89949e-07
4.35527e-06
5.44208e-07
4.35245e-06
4.81105e-07
4.35223e-06
2.91547e-07
4.35936e-06
4.21674e-07
4.35543e-06
4.18349e-07
4.36277e-06
3.2016e-07
4.37076e-06
3.38094e-07
4.36547e-06
2.84232e-07
4.36312e-06
2.04541e-07
4.36406e-06
1.95564e-07
4.3584e-06
1.95488e-07
1.75653e-07
4.35332e-06
4.52715e-06
-1.64223e-08
4.5477e-06
5.83649e-07
4.53194e-06
-3.89522e-08
4.51832e-06
1.15256e-07
4.54922e-06
5.25515e-07
4.54886e-06
4.95699e-07
4.5442e-06
3.4239e-07
4.55237e-06
3.81784e-07
4.56293e-06
5.33642e-07
4.56024e-06
4.83797e-07
4.55957e-06
2.92217e-07
4.56787e-06
4.13376e-07
4.56393e-06
4.22291e-07
4.56977e-06
3.14314e-07
4.57879e-06
3.29079e-07
4.57377e-06
2.89249e-07
4.56997e-06
2.08348e-07
4.57169e-06
1.93842e-07
4.56811e-06
1.9907e-07
1.81723e-07
4.56204e-06
4.74412e-06
-1.84284e-08
4.76342e-06
5.64345e-07
4.74939e-06
-2.49162e-08
4.7355e-06
1.29148e-07
4.76585e-06
4.9516e-07
4.76678e-06
4.94773e-07
4.76088e-06
3.48284e-07
4.76977e-06
3.72897e-07
4.78061e-06
5.22802e-07
4.77795e-06
4.86454e-07
4.77675e-06
2.93417e-07
4.78619e-06
4.03941e-07
4.78248e-06
4.25996e-07
4.78658e-06
3.10219e-07
4.79653e-06
3.19125e-07
4.79208e-06
2.93702e-07
4.78688e-06
2.13542e-07
4.78879e-06
1.91934e-07
4.78736e-06
2.005e-07
1.87717e-07
4.78137e-06
4.97137e-06
-2.09969e-08
4.98943e-06
5.46281e-07
4.97701e-06
-1.2496e-08
4.96334e-06
1.42816e-07
4.99259e-06
4.65918e-07
4.99532e-06
4.92042e-07
4.988e-06
3.55598e-07
4.99734e-06
3.6356e-07
5.00875e-06
5.11392e-07
5.00611e-06
4.89092e-07
5.00424e-06
2.95288e-07
5.01478e-06
3.93399e-07
5.01161e-06
4.29168e-07
5.0137e-06
3.0813e-07
5.02441e-06
3.08411e-07
5.02096e-06
2.97157e-07
5.01447e-06
2.20033e-07
5.01596e-06
1.90434e-07
5.01647e-06
1.99992e-07
1.92632e-07
5.01156e-06
5.20939e-06
-2.40677e-08
5.22626e-06
5.29408e-07
5.21522e-06
-1.45217e-09
5.20238e-06
1.55656e-07
5.22988e-06
4.38414e-07
5.23496e-06
4.86965e-07
5.22618e-06
3.6437e-07
5.23554e-06
3.54206e-07
5.24782e-06
4.99113e-07
5.24528e-06
4.91627e-07
5.24255e-06
2.98024e-07
5.25412e-06
3.81829e-07
5.25185e-06
4.31437e-07
5.25171e-06
3.08271e-07
5.26286e-06
2.97259e-07
5.26094e-06
2.99072e-07
5.25332e-06
2.27655e-07
5.25395e-06
1.89802e-07
5.25586e-06
1.98085e-07
1.95785e-07
5.25271e-06
5.4587e-06
-2.75803e-08
5.4745e-06
5.13606e-07
5.46445e-06
8.604e-09
5.45313e-06
1.66974e-07
5.47824e-06
4.13303e-07
5.48602e-06
4.79185e-07
5.47606e-06
3.74334e-07
5.48487e-06
3.45398e-07
5.49826e-06
4.85717e-07
5.49602e-06
4.93867e-07
5.49223e-06
3.01819e-07
5.50467e-06
3.69385e-07
5.50372e-06
4.32391e-07
5.50127e-06
3.1072e-07
5.51233e-06
2.86193e-07
5.51255e-06
2.98862e-07
5.50401e-06
2.36188e-07
5.50343e-06
1.90388e-07
5.5062e-06
1.95314e-07
1.97005e-07
5.50498e-06
5.71984e-06
-3.14574e-08
5.73479e-06
4.98655e-07
5.7252e-06
1.81861e-08
5.71616e-06
1.76021e-07
5.73826e-06
3.91197e-07
5.74881e-06
4.6864e-07
5.73824e-06
3.849e-07
5.74589e-06
3.37747e-07
5.76054e-06
4.71067e-07
5.75891e-06
4.955e-07
5.75389e-06
3.06842e-07
5.76693e-06
3.56344e-07
5.76775e-06
4.31563e-07
5.76308e-06
3.15394e-07
5.77338e-06
2.75894e-07
5.77615e-06
2.96094e-07
5.7672e-06
2.45138e-07
5.76497e-06
1.92612e-07
5.76819e-06
1.92098e-07
1.96438e-07
5.76876e-06
5.99333e-06
-3.55941e-08
6.00774e-06
4.84242e-07
5.99805e-06
2.78831e-08
5.99199e-06
1.82074e-07
6.01063e-06
3.72566e-07
6.02363e-06
4.55633e-07
6.01331e-06
3.95221e-07
6.01927e-06
3.31791e-07
6.03513e-06
4.55203e-07
6.03448e-06
4.96154e-07
6.02816e-06
3.13159e-07
6.04141e-06
3.43097e-07
6.04442e-06
4.28545e-07
6.03789e-06
3.21927e-07
6.04659e-06
2.67196e-07
6.0521e-06
2.90579e-07
6.04351e-06
2.53738e-07
6.03934e-06
1.9678e-07
6.04245e-06
1.88987e-07
1.94284e-07
6.0446e-06
6.27974e-06
-3.98496e-08
6.29403e-06
4.6996e-07
6.28361e-06
3.83e-08
6.28113e-06
1.84552e-07
6.29614e-06
3.57559e-07
6.31093e-06
4.40842e-07
6.3018e-06
4.04345e-07
6.3057e-06
3.27893e-07
6.32253e-06
4.38378e-07
6.32327e-06
4.95409e-07
6.31572e-06
3.20708e-07
6.32869e-06
3.30125e-07
6.33415e-06
4.23093e-07
6.32638e-06
3.29692e-07
6.33276e-06
2.6082e-07
6.34069e-06
2.8265e-07
6.33346e-06
2.60968e-07
6.32735e-06
2.02884e-07
6.32967e-06
1.86666e-07
1.90806e-07
6.33315e-06
6.57967e-06
-4.40487e-08
6.59427e-06
4.55354e-07
6.58262e-06
4.99577e-08
6.58396e-06
1.83205e-07
6.59566e-06
3.45865e-07
6.61126e-06
4.25243e-07
6.60421e-06
4.11391e-07
6.60599e-06
3.26113e-07
6.62329e-06
4.21083e-07
6.62583e-06
4.92867e-07
6.61727e-06
3.29262e-07
6.62938e-06
3.18018e-07
6.63738e-06
4.15093e-07
6.62918e-06
3.37893e-07
6.63263e-06
2.57368e-07
6.64238e-06
2.72904e-07
6.63746e-06
2.65885e-07
6.62984e-06
2.10505e-07
6.63067e-06
1.85839e-07
1.86432e-07
6.63504e-06
6.89373e-06
-4.79884e-08
6.90916e-06
4.39928e-07
6.89585e-06
6.32672e-08
6.90084e-06
1.78213e-07
6.91004e-06
3.36663e-07
6.92532e-06
4.09964e-07
6.92107e-06
4.15643e-07
6.92091e-06
3.26271e-07
6.93806e-06
4.03933e-07
6.94266e-06
4.88266e-07
6.93346e-06
3.38462e-07
6.94417e-06
3.07312e-07
6.95463e-06
4.04632e-07
6.94679e-06
3.45732e-07
6.9471e-06
2.57058e-07
6.95781e-06
2.62195e-07
6.9558e-06
2.67896e-07
6.94747e-06
2.1883e-07
6.94643e-06
1.86881e-07
1.81931e-07
6.95093e-06
7.2226e-06
-5.14479e-08
7.23934e-06
4.23188e-07
7.22414e-06
7.84613e-08
7.23215e-06
1.70204e-07
7.24007e-06
3.2874e-07
7.25396e-06
3.96073e-07
7.25287e-06
4.1674e-07
7.25125e-06
3.2789e-07
7.26761e-06
3.87572e-07
7.27429e-06
4.81579e-07
7.26491e-06
3.47848e-07
7.2738e-06
2.98423e-07
7.28642e-06
3.9201e-07
7.27973e-06
3.5242e-07
7.27699e-06
2.59803e-07
7.28758e-06
2.51603e-07
7.28884e-06
2.66631e-07
7.28077e-06
2.26903e-07
7.27788e-06
1.89771e-07
1.78145e-07
7.28167e-06
7.56698e-06
-5.41996e-08
7.58547e-06
4.04698e-07
7.56838e-06
9.55515e-08
7.5784e-06
1.60184e-07
7.58642e-06
3.20719e-07
7.5981e-06
3.84392e-07
7.60007e-06
4.14767e-07
7.59772e-06
3.30247e-07
7.61272e-06
3.72568e-07
7.62131e-06
4.72991e-07
7.61224e-06
3.56913e-07
7.61909e-06
2.91575e-07
7.6333e-06
3.77806e-07
7.62851e-06
3.57207e-07
7.62312e-06
2.65188e-07
7.63241e-06
2.42316e-07
7.63703e-06
2.6201e-07
7.63017e-06
2.33762e-07
7.62579e-06
1.94155e-07
1.75669e-07
7.62827e-06
7.92763e-06
-5.60227e-08
7.94822e-06
3.84116e-07
7.92945e-06
1.14321e-07
7.94022e-06
1.4941e-07
7.94966e-06
3.11281e-07
7.95864e-06
3.7541e-07
7.96319e-06
4.10218e-07
7.96097e-06
3.32469e-07
7.97425e-06
3.5929e-07
7.98437e-06
4.62872e-07
7.97604e-06
3.65242e-07
7.98079e-06
2.86818e-07
7.99592e-06
3.6268e-07
7.99357e-06
3.59557e-07
7.98631e-06
2.72445e-07
7.99332e-06
2.35308e-07
8.00082e-06
2.54505e-07
7.99613e-06
2.38452e-07
7.99078e-06
1.99506e-07
1.74737e-07
7.99171e-06
8.30538e-06
-5.67188e-08
8.32825e-06
3.61246e-07
8.30823e-06
1.34339e-07
8.31841e-06
1.3923e-07
8.33036e-06
2.99327e-07
8.33663e-06
3.69141e-07
8.34289e-06
4.03962e-07
8.34159e-06
3.33765e-07
8.35304e-06
3.47841e-07
8.36418e-06
4.51729e-07
8.35689e-06
3.72532e-07
8.35959e-06
2.8412e-07
8.37505e-06
3.47217e-07
8.37539e-06
3.59226e-07
8.36732e-06
2.8051e-07
8.37145e-06
2.31178e-07
8.38088e-06
2.45072e-07
8.37913e-06
2.40203e-07
8.37348e-06
2.05157e-07
1.75307e-07
8.37291e-06
8.70106e-06
-5.61207e-08
8.72626e-06
3.36053e-07
8.70561e-06
1.54982e-07
8.71391e-06
1.30934e-07
8.72905e-06
2.84185e-07
8.73317e-06
3.65022e-07
8.73994e-06
3.97189e-07
8.74012e-06
3.33584e-07
8.74992e-06
3.38044e-07
8.7615e-06
4.40151e-07
8.75539e-06
3.78642e-07
8.75615e-06
2.83361e-07
8.7715e-06
3.31871e-07
8.77461e-06
3.56112e-07
8.76681e-06
2.88313e-07
8.76804e-06
2.2994e-07
8.77806e-06
2.35053e-07
8.77971e-06
2.38558e-07
8.77456e-06
2.10304e-07
1.77171e-07
8.7727e-06
9.11561e-06
-5.41106e-08
9.14297e-06
3.08691e-07
9.1225e-06
1.75452e-07
9.12779e-06
1.25648e-07
9.14625e-06
2.65718e-07
9.14917e-06
3.62111e-07
9.15527e-06
3.91084e-07
9.15699e-06
3.31861e-07
9.16562e-06
3.29416e-07
9.17713e-06
4.28638e-07
9.17234e-06
3.8344e-07
9.17129e-06
2.84402e-07
9.18624e-06
3.16922e-07
9.19207e-06
3.50285e-07
9.18543e-06
2.94949e-07
9.18421e-06
2.31161e-07
9.19349e-06
2.25778e-07
9.19842e-06
2.33626e-07
9.19472e-06
2.14003e-07
1.7996e-07
9.19193e-06
9.55e-06
-5.06468e-08
9.57917e-06
2.79516e-07
9.55983e-06
1.94794e-07
9.56129e-06
1.24189e-07
9.58255e-06
2.44455e-07
9.58531e-06
3.59352e-07
9.58979e-06
3.86605e-07
9.59268e-06
3.28969e-07
9.60081e-06
3.21283e-07
9.61221e-06
4.1724e-07
9.60884e-06
3.8681e-07
9.60643e-06
2.86819e-07
9.62046e-06
3.02889e-07
9.62881e-06
3.41935e-07
9.62397e-06
2.99785e-07
9.62101e-06
2.34122e-07
9.62853e-06
2.18261e-07
9.636e-06
2.26149e-07
9.63455e-06
2.15454e-07
1.83029e-07
9.63149e-06
1.00053e-05
-4.57791e-08
1.00357e-05
2.49106e-07
1.00185e-05
2.11927e-07
1.00157e-05
1.27072e-07
1.00386e-05
2.21481e-07
1.00425e-05
3.55498e-07
1.00445e-05
3.84586e-07
1.0048e-05
3.25514e-07
1.00565e-05
3.12707e-07
1.00681e-05
4.05695e-07
1.00662e-05
3.88742e-07
1.00626e-05
2.90333e-07
1.00752e-05
2.90306e-07
1.0086e-05
3.31172e-07
1.00833e-05
3.02441e-07
1.00794e-05
2.38037e-07
1.00846e-05
2.1305e-07
1.00934e-05
2.17329e-07
1.00947e-05
2.14176e-07
1.85642e-07
1.00921e-05
1.04825e-05
-3.96627e-08
1.05134e-05
2.18225e-07
1.04995e-05
2.25803e-07
1.04922e-05
1.34399e-07
1.05155e-05
1.98139e-07
1.05222e-05
3.48876e-07
1.05214e-05
3.85374e-07
1.05241e-05
3.22779e-07
1.05336e-05
3.0322e-07
1.0546e-05
3.93294e-07
1.05455e-05
3.89262e-07
1.0541e-05
2.94812e-07
1.05517e-05
2.79624e-07
1.05645e-05
3.1838e-07
1.05644e-05
3.02538e-07
1.05603e-05
2.42111e-07
1.05631e-05
2.10225e-07
1.05721e-05
2.0839e-07
1.0576e-05
2.10261e-07
1.87063e-07
1.05746e-05
1.09829e-05
-3.25687e-08
1.10133e-05
1.87832e-07
1.10038e-05
2.35362e-07
1.09923e-05
1.45873e-07
1.10145e-05
1.75939e-07
1.10252e-05
3.38189e-07
1.10226e-05
3.87896e-07
1.1023e-05
3.22477e-07
1.10327e-05
2.93447e-07
1.10468e-05
3.79203e-07
1.1048e-05
3.88045e-07
1.10429e-05
2.99941e-07
1.10512e-05
2.71304e-07
1.10654e-05
3.04246e-07
1.1068e-05
2.99913e-07
1.10646e-05
2.45533e-07
1.10653e-05
2.09485e-07
1.10733e-05
2.00353e-07
1.10794e-05
2.0423e-07
1.86814e-07
1.10796e-05
1.15077e-05
-2.48772e-08
1.15365e-05
1.58986e-07
1.15323e-05
2.39625e-07
1.15173e-05
1.60862e-07
1.15366e-05
1.56582e-07
1.15518e-05
3.22969e-07
1.15495e-05
3.90284e-07
1.15465e-05
3.25421e-07
1.15552e-05
2.84795e-07
1.15712e-05
3.63192e-07
1.15747e-05
3.84473e-07
1.15696e-05
3.05116e-07
1.15752e-05
2.65636e-07
1.15898e-05
2.89686e-07
1.15951e-05
2.94582e-07
1.1593e-05
2.47697e-07
1.15924e-05
2.10065e-07
1.15987e-05
1.94001e-07
1.1606e-05
1.96923e-07
1.84612e-07
1.16082e-05
1.2058e-05
-1.70445e-08
1.20843e-05
1.32694e-07
1.20859e-05
2.37995e-07
1.20685e-05
1.78226e-07
1.20833e-05
1.41811e-07
1.21029e-05
3.03407e-07
1.21024e-05
3.90805e-07
1.20966e-05
3.3117e-07
1.21027e-05
2.78712e-07
1.212e-05
3.45843e-07
1.21265e-05
3.77987e-07
1.2122e-05
3.09639e-07
1.21251e-05
2.62542e-07
1.21391e-05
2.75654e-07
1.21469e-05
2.86799e-07
1.21464e-05
2.48215e-07
1.21454e-05
2.11069e-07
1.21498e-05
1.89583e-07
1.21573e-05
1.89402e-07
1.80456e-07
1.21615e-05
1.26351e-05
-9.5538e-09
1.2658e-05
1.09813e-07
1.26655e-05
2.3049e-07
1.26474e-05
1.96304e-07
1.26562e-05
1.33005e-07
1.26792e-05
2.80395e-07
1.26821e-05
3.87915e-07
1.26744e-05
3.38874e-07
1.26771e-05
2.76035e-07
1.26948e-05
3.28182e-07
1.27043e-05
3.68443e-07
1.27012e-05
3.12718e-07
1.27022e-05
2.61576e-07
1.27148e-05
2.63031e-07
1.27246e-05
2.77048e-07
1.27259e-05
2.46861e-07
1.27252e-05
2.11797e-07
1.27281e-05
1.8668e-07
1.27348e-05
1.82685e-07
1.74797e-07
1.27405e-05
1.32402e-05
-2.85119e-09
1.32591e-05
9.09931e-08
1.32719e-05
2.1769e-07
1.32548e-05
2.13337e-07
1.32571e-05
1.30694e-07
1.32819e-05
2.55613e-07
1.32894e-05
3.80403e-07
1.32808e-05
3.47492e-07
1.328e-05
2.76795e-07
1.32968e-05
3.11436e-07
1.33091e-05
3.5611e-07
1.33082e-05
3.13656e-07
1.33077e-05
2.62011e-07
1.33183e-05
2.52448e-07
1.33293e-05
2.6605e-07
1.33327e-05
2.43468e-07
1.33326e-05
2.11872e-07
1.33348e-05
1.84534e-07
1.33402e-05
1.7725e-07
1.68526e-07
1.33465e-05
1.38746e-05
2.70846e-09
1.38891e-05
7.64722e-08
1.39061e-05
2.00747e-07
1.38918e-05
2.27581e-07
1.38878e-05
1.34698e-07
1.39122e-05
2.31277e-07
1.39246e-05
3.67976e-07
1.39167e-05
3.55421e-07
1.39131e-05
2.80315e-07
1.39277e-05
2.96842e-07
1.39423e-05
3.41502e-07
1.3944e-05
3.12013e-07
1.3943e-05
2.62963e-07
1.39513e-05
2.44166e-07
1.39627e-05
2.54655e-07
1.39681e-05
2.38088e-07
1.39689e-05
2.11023e-07
1.39709e-05
1.82611e-07
1.39753e-05
1.72816e-07
1.62629e-07
1.39812e-05
1.45395e-05
6.88405e-09
1.45495e-05
6.64118e-08
1.45694e-05
1.80904e-07
1.45594e-05
2.37581e-07
1.45499e-05
1.44234e-07
1.45708e-05
2.1031e-07
1.45878e-05
3.50965e-07
1.4583e-05
3.60279e-07
1.45776e-05
2.85737e-07
1.45893e-05
2.85052e-07
1.46053e-05
3.25514e-07
1.46098e-05
3.07583e-07
1.46091e-05
2.63637e-07
1.46153e-05
2.37916e-07
1.46263e-05
2.43705e-07
1.46333e-05
2.31042e-07
1.46354e-05
2.08925e-07
1.46373e-05
1.80696e-07
1.46414e-05
1.68811e-07
1.57579e-07
1.46464e-05
1.52361e-05
9.63464e-09
1.52423e-05
6.027e-08
1.52637e-05
1.59446e-07
1.52579e-05
2.43457e-07
1.52439e-05
1.58147e-07
1.52582e-05
1.96079e-07
1.52802e-05
3.28944e-07
1.52806e-05
3.59883e-07
1.52746e-05
2.91759e-07
1.52835e-05
2.76158e-07
1.52996e-05
3.09358e-07
1.53068e-05
3.00354e-07
1.53071e-05
2.63356e-07
1.53118e-05
2.33221e-07
1.53218e-05
2.33763e-07
1.53299e-05
2.22911e-07
1.53335e-05
2.05357e-07
1.53356e-05
1.78584e-07
1.53394e-05
1.64968e-07
1.53128e-07
1.53439e-05
1.59659e-05
1.10931e-08
1.59712e-05
5.49736e-08
1.59899e-05
1.40683e-07
1.59868e-05
2.46625e-07
1.59718e-05
1.73136e-07
1.59786e-05
1.89245e-07
1.60037e-05
3.03868e-07
1.60104e-05
3.53194e-07
1.60055e-05
2.96596e-07
1.60116e-05
2.70058e-07
1.6027e-05
2.9396e-07
1.60366e-05
2.90764e-07
1.60385e-05
2.61474e-07
1.60422e-05
2.29509e-07
1.60509e-05
2.25051e-07
1.60595e-05
2.14365e-07
1.60644e-05
2.00408e-07
1.60671e-05
1.75921e-07
1.60708e-05
1.61276e-07
1.48774e-07
1.60751e-05
1.67299e-05
1.17741e-08
1.67245e-05
6.03567e-08
1.67423e-05
1.22905e-07
1.67484e-05
2.40516e-07
1.6736e-05
1.85586e-07
1.67379e-05
1.87362e-07
1.67616e-05
2.8008e-07
1.67739e-05
3.40975e-07
1.67716e-05
2.98908e-07
1.67755e-05
2.66076e-07
1.67894e-05
2.80046e-07
1.68006e-05
2.79581e-07
1.68045e-05
2.57595e-07
1.68079e-05
2.26093e-07
1.68154e-05
2.17537e-07
1.68239e-05
2.05901e-07
1.68299e-05
1.94433e-07
1.68334e-05
1.72448e-07
1.6837e-05
1.57651e-07
1.44317e-07
1.68414e-05
1.75305e-05
1.16729e-08
1.75276e-05
6.32323e-08
1.75395e-05
1.11005e-07
1.75474e-05
2.32574e-07
1.75379e-05
1.95111e-07
1.75362e-05
1.89023e-07
1.75567e-05
2.59606e-07
1.75729e-05
3.24777e-07
1.75737e-05
2.98165e-07
1.75766e-05
2.63135e-07
1.75887e-05
2.67989e-07
1.76007e-05
2.67529e-07
1.76065e-05
2.51834e-07
1.76103e-05
2.22216e-07
1.76169e-05
2.10959e-07
1.7625e-05
1.97858e-07
1.76316e-05
1.8782e-07
1.76359e-05
1.68081e-07
1.76396e-05
1.54003e-07
1.39736e-07
1.76442e-05
1.83689e-05
1.11042e-08
1.83637e-05
6.84465e-08
1.83736e-05
1.01058e-07
1.83844e-05
2.21803e-07
1.83783e-05
2.01182e-07
1.83747e-05
1.92699e-07
1.83911e-05
2.43131e-07
1.84094e-05
3.06531e-07
1.84135e-05
2.94084e-07
1.84163e-05
2.60296e-07
1.84265e-05
2.57772e-07
1.84387e-05
2.55314e-07
1.84461e-05
2.44471e-07
1.84508e-05
2.17545e-07
1.84569e-05
2.04829e-07
1.84645e-05
1.90305e-07
1.84713e-05
1.80954e-07
1.84765e-05
1.62933e-07
1.84805e-05
1.49996e-07
1.35222e-07
1.8485e-05
1.92473e-05
1.02199e-08
1.92426e-05
7.31081e-08
1.92493e-05
9.44106e-08
1.92613e-05
2.09795e-07
1.92585e-05
2.03927e-07
1.92543e-05
1.96944e-07
1.92669e-05
2.30501e-07
1.92854e-05
2.88036e-07
1.92927e-05
2.86813e-07
1.92962e-05
2.56803e-07
1.93049e-05
2.48996e-07
1.93167e-05
2.4355e-07
1.93254e-05
2.35824e-07
1.9331e-05
2.11933e-07
1.9337e-05
1.98773e-07
1.93442e-05
1.83088e-07
1.93511e-05
1.74073e-07
1.93569e-05
1.57198e-07
1.93615e-05