/*--------------------------------*- C++ -*----------------------------------*\
| =========                 |                                                 |
| \\      /  F ield         | OpenFOAM: The Open Source CFD Toolbox           |
|  \\    /   O peration     | Version:  2506                                  |
|   \\  /    A nd           | Website:  www.openfoam.com                      |
|    \\/     M anipulation  |                                                 |
\*---------------------------------------------------------------------------*/
FoamFile
{
    version     2.0;
    format      ascii;
    arch        "LSB;label=32;scalar=64";
    class       surfaceScalarField;
    location    "5.85";
    object      phi;
}
// * * * * * * * * * * * * * * * * * * * * * * * * * * * * * * * * * * * * * //

dimensions      [0 3 -1 0 0 0 0];

oriented        oriented;

internalField   nonuniform List<scalar> 
19000
(
1.14668e-06
-8.72396e-07
1.17027e-06
7.24765e-07
1.14614e-06
5.19788e-07
1.15333e-06
2.54604e-07
1.18146e-06
-1.01682e-06
1.2117e-06
-1.38082e-06
1.23524e-06
4.70608e-07
1.2055e-06
-1.08469e-07
1.23381e-06
2.06532e-06
1.17014e-06
-1.97578e-07
1.17787e-06
7.76859e-07
1.13528e-06
-3.37248e-07
1.13293e-06
-5.06232e-07
1.11569e-06
-6.63762e-07
1.11486e-06
-1.05702e-06
1.12039e-06
-6.88852e-07
1.13603e-06
-8.59656e-07
1.1323e-06
-6.36469e-07
1.16026e-06
-4.99631e-07
-4.51483e-07
1.11558e-06
1.20629e-06
-8.54426e-07
1.22924e-06
7.01819e-07
1.20388e-06
5.45148e-07
1.20611e-06
2.52375e-07
1.23192e-06
-1.04264e-06
1.2656e-06
-1.4145e-06
1.29089e-06
4.45324e-07
1.26787e-06
-8.54516e-08
1.28416e-06
2.04903e-06
1.23463e-06
-1.48051e-07
1.22394e-06
7.87552e-07
1.20835e-06
-3.21655e-07
1.19282e-06
-4.90703e-07
1.198e-06
-6.68942e-07
1.1822e-06
-1.04122e-06
1.19495e-06
-7.01605e-07
1.18819e-06
-8.52893e-07
1.20438e-06
-6.5266e-07
1.20231e-06
-4.97563e-07
-4.46048e-07
1.19687e-06
1.26896e-06
-8.40602e-07
1.29355e-06
6.77228e-07
1.26677e-06
5.71929e-07
1.26025e-06
2.58898e-07
1.28192e-06
-1.06431e-06
1.31835e-06
-1.45093e-06
1.34967e-06
4.14009e-07
1.32955e-06
-6.53381e-08
1.34125e-06
2.03733e-06
1.30315e-06
-1.09954e-07
1.28963e-06
8.01065e-07
1.28205e-06
-3.14073e-07
1.26638e-06
-4.75028e-07
1.26804e-06
-6.70599e-07
1.24696e-06
-1.02015e-06
1.25121e-06
-7.05856e-07
1.24404e-06
-8.45722e-07
1.25491e-06
-6.63524e-07
1.25678e-06
-4.99438e-07
-4.38706e-07
1.24944e-06
1.33451e-06
-8.31007e-07
1.35915e-06
6.5259e-07
1.33303e-06
5.98049e-07
1.31777e-06
2.74155e-07
1.33348e-06
-1.08002e-06
1.37144e-06
-1.48889e-06
1.40974e-06
3.75706e-07
1.39466e-06
-5.02593e-08
1.40419e-06
2.0278e-06
1.3747e-06
-8.04644e-08
1.36329e-06
8.1248e-07
1.35401e-06
-3.048e-07
1.34002e-06
-4.61034e-07
1.33513e-06
-6.65706e-07
1.31353e-06
-9.98548e-07
1.31317e-06
-7.05499e-07
1.30538e-06
-8.37935e-07
1.313e-06
-6.71143e-07
1.31457e-06
-5.0101e-07
-4.32117e-07
1.30799e-06
1.40229e-06
-8.24947e-07
1.42418e-06
6.30701e-07
1.40153e-06
6.20702e-07
1.38114e-06
2.94547e-07
1.38941e-06
-1.08829e-06
1.42617e-06
-1.52566e-06
1.47103e-06
3.30845e-07
1.46264e-06
-4.18647e-08
1.47309e-06
2.01735e-06
1.44766e-06
-5.50324e-08
1.43982e-06
8.20313e-07
1.42699e-06
-2.9197e-07
1.41381e-06
-4.47853e-07
1.40472e-06
-6.56613e-07
1.38271e-06
-9.76544e-07
1.38092e-06
-7.03705e-07
1.37063e-06
-8.27649e-07
1.3756e-06
-6.7611e-07
1.37594e-06
-5.01352e-07
-4.2568e-07
1.36951e-06
1.47176e-06
-8.21026e-07
1.48888e-06
6.13579e-07
1.47223e-06
6.37347e-07
1.45179e-06
3.14985e-07
1.45146e-06
-1.08796e-06
1.48387e-06
-1.55807e-06
1.53355e-06
2.81165e-07
1.5328e-06
-4.11165e-08
1.54591e-06
2.00425e-06
1.5211e-06
-3.02265e-08
1.51688e-06
8.24534e-07
1.50107e-06
-2.76159e-07
1.48797e-06
-4.34758e-07
1.47569e-06
-6.44333e-07
1.45312e-06
-9.53971e-07
1.45019e-06
-7.00774e-07
1.43898e-06
-8.1644e-07
1.44109e-06
-6.78213e-07
1.44081e-06
-5.01077e-07
-4.18243e-07
1.43337e-06
1.54266e-06
-8.17465e-07
1.5549e-06
6.01332e-07
1.54573e-06
6.46516e-07
1.52939e-06
3.31324e-07
1.51996e-06
-1.07852e-06
1.54525e-06
-1.58336e-06
1.59688e-06
2.29537e-07
1.60366e-06
-4.78926e-08
1.62063e-06
1.98727e-06
1.59455e-06
-4.1456e-09
1.59466e-06
8.24424e-07
1.57722e-06
-2.58712e-07
1.56463e-06
-4.22169e-07
1.54994e-06
-6.29644e-07
1.52685e-06
-9.30879e-07
1.52196e-06
-6.9589e-07
1.51079e-06
-8.05271e-07
1.51033e-06
-6.77748e-07
1.50968e-06
-5.00425e-07
-4.09637e-07
1.50107e-06
1.61532e-06
-8.12654e-07
1.62425e-06
5.924e-07
1.62267e-06
6.48098e-07
1.61235e-06
3.41641e-07
1.59441e-06
-1.06058e-06
1.61049e-06
-1.59944e-06
1.66003e-06
1.79998e-07
1.67322e-06
-6.1084e-08
1.69511e-06
1.96538e-06
1.66788e-06
2.3086e-08
1.67372e-06
8.18586e-07
1.65555e-06
-2.40547e-07
1.64418e-06
-4.10795e-07
1.62753e-06
-6.1299e-07
1.60411e-06
-9.07468e-07
1.5968e-06
-6.8858e-07
1.58576e-06
-7.94226e-07
1.58312e-06
-6.75105e-07
1.58246e-06
-4.99772e-07
-4.00731e-07
1.57356e-06
1.69054e-06
-8.05624e-07
1.69836e-06
5.84582e-07
1.70334e-06
6.4312e-07
1.69889e-06
3.46088e-07
1.67407e-06
-1.03576e-06
1.67967e-06
-1.60504e-06
1.7226e-06
1.37069e-07
1.74035e-06
-7.88408e-08
1.76841e-06
1.93732e-06
1.74184e-06
4.96634e-08
1.7549e-06
8.05519e-07
1.73653e-06
-2.22176e-07
1.72713e-06
-4.0139e-07
1.70898e-06
-5.94843e-07
1.6857e-06
-8.84191e-07
1.67576e-06
-6.78637e-07
1.6642e-06
-7.82669e-07
1.65926e-06
-6.70163e-07
1.6586e-06
-4.99112e-07
-3.92824e-07
1.65069e-06
1.76927e-06
-7.96175e-07
1.77787e-06
5.75981e-07
1.78777e-06
6.33225e-07
1.78784e-06
3.46015e-07
1.7583e-06
-1.00622e-06
1.75322e-06
-1.59995e-06
1.78608e-06
1.04209e-07
1.80632e-06
-9.9075e-08
1.8417e-06
1.90194e-06
1.81816e-06
7.32033e-08
1.83915e-06
7.84531e-07
1.82038e-06
-2.03403e-07
1.81341e-06
-3.94417e-07
1.79411e-06
-5.75549e-07
1.77158e-06
-8.61661e-07
1.75933e-06
-6.6638e-07
1.74646e-06
-7.69807e-07
1.73885e-06
-6.62552e-07
1.73752e-06
-4.97776e-07
-3.86826e-07
1.73152e-06
1.85225e-06
-7.8468e-07
1.86276e-06
5.65474e-07
1.87588e-06
6.20101e-07
1.87884e-06
3.43058e-07
1.8466e-06
-9.73977e-07
1.83201e-06
-1.58537e-06
1.85393e-06
8.22895e-08
1.87482e-06
-1.19969e-07
1.91801e-06
1.85874e-06
1.89892e-06
9.22945e-08
1.92707e-06
7.56385e-07
1.90722e-06
-1.83557e-07
1.90272e-06
-3.89912e-07
1.88256e-06
-5.55394e-07
1.86129e-06
-8.40386e-07
1.84749e-06
-6.52587e-07
1.83278e-06
-7.55097e-07
1.82234e-06
-6.52105e-07
1.81913e-06
-4.9457e-07
-3.82662e-07
1.81497e-06
1.93993e-06
-7.71773e-07
1.95261e-06
5.52798e-07
1.9676e-06
6.05111e-07
1.97215e-06
3.38502e-07
1.93868e-06
-9.405e-07
1.91688e-06
-1.56357e-06
1.92992e-06
6.92524e-08
1.95016e-06
-1.4021e-07
2.00054e-06
1.80836e-06
1.98544e-06
1.07402e-07
2.01858e-06
7.23245e-07
1.99704e-06
-1.62024e-07
1.99465e-06
-3.87514e-07
1.97394e-06
-5.34687e-07
1.95414e-06
-8.20592e-07
1.93975e-06
-6.38196e-07
1.92314e-06
-7.38482e-07
1.91026e-06
-6.39225e-07
1.90401e-06
-4.88325e-07
-3.79314e-07
1.90067e-06
2.03249e-06
-7.58075e-07
2.04689e-06
5.384e-07
2.06279e-06
5.89206e-07
2.06834e-06
3.32956e-07
2.03457e-06
-9.06729e-07
2.00821e-06
-1.53722e-06
2.01612e-06
6.13466e-08
2.03478e-06
-1.58874e-07
2.09075e-06
1.75239e-06
2.07767e-06
1.20484e-07
2.11309e-06
6.87826e-07
2.08986e-06
-1.38797e-07
2.08909e-06
-3.86737e-07
2.0682e-06
-5.13803e-07
2.04984e-06
-8.0223e-07
2.03558e-06
-6.23935e-07
2.01738e-06
-7.20283e-07
2.00304e-06
-6.24888e-07
1.99314e-06
-4.78421e-07
-3.75394e-07
1.98922e-06
2.12994e-06
-7.44017e-07
2.1452e-06
5.23138e-07
2.16139e-06
5.73024e-07
2.168e-06
3.26343e-07
2.13455e-06
-8.73275e-07
2.10573e-06
-1.5084e-06
2.11193e-06
5.51395e-08
2.1282e-06
-1.75142e-07
2.18776e-06
1.69284e-06
2.17457e-06
1.33669e-07
2.21017e-06
6.52225e-07
2.18596e-06
-1.1458e-07
2.18648e-06
-3.87259e-07
2.16577e-06
-4.93094e-07
2.14859e-06
-7.85053e-07
2.13486e-06
-6.10202e-07
2.11542e-06
-7.0084e-07
2.10086e-06
-6.10329e-07
2.08746e-06
-4.65018e-07
-3.6979e-07
2.08185e-06
2.23225e-06
-7.29773e-07
2.2475e-06
5.07879e-07
2.26353e-06
5.56996e-07
2.27169e-06
3.18188e-07
2.239e-06
-8.40586e-07
2.20879e-06
-1.47819e-06
2.21501e-06
4.89173e-08
2.22801e-06
-1.88143e-07
2.28946e-06
1.63138e-06
2.27507e-06
1.48065e-07
2.3101e-06
6.17188e-07
2.28593e-06
-9.04018e-08
2.28769e-06
-3.89027e-07
2.2674e-06
-4.72802e-07
2.251e-06
-7.68654e-07
2.238e-06
-5.97201e-07
2.21737e-06
-6.80211e-07
2.20364e-06
-5.96594e-07
2.18759e-06
-4.48971e-07
-3.6193e-07
2.17973e-06
2.33941e-06
-7.15304e-07
2.35413e-06
4.93159e-07
2.36972e-06
5.41403e-07
2.3799e-06
3.08009e-07
2.34825e-06
-8.08936e-07
2.31684e-06
-1.44678e-06
2.32307e-06
4.26909e-08
2.33201e-06
-1.97088e-07
2.3944e-06
1.569e-06
2.37893e-06
1.63528e-07
2.41387e-06
5.82248e-07
2.39057e-06
-6.70989e-08
2.39363e-06
-3.92084e-07
2.37391e-06
-4.53088e-07
2.35772e-06
-7.52456e-07
2.34567e-06
-5.8515e-07
2.32359e-06
-6.5814e-07
2.3112e-06
-5.84202e-07
2.29373e-06
-4.315e-07
-3.51677e-07
2.28348e-06
2.45155e-06
-7.00459e-07
2.46565e-06
4.79055e-07
2.48064e-06
5.26422e-07
2.49306e-06
2.95585e-07
2.46246e-06
-7.7834e-07
2.42971e-06
-1.41403e-06
2.43517e-06
3.72279e-08
2.43963e-06
-2.01548e-07
2.50266e-06
1.50597e-06
2.4869e-06
1.79293e-07
2.52269e-06
5.46455e-07
2.50065e-06
-4.50558e-08
2.50489e-06
-3.96324e-07
2.48594e-06
-4.34139e-07
2.46921e-06
-7.35726e-07
2.45845e-06
-5.74388e-07
2.43457e-06
-6.34261e-07
2.42343e-06
-5.73065e-07
2.40576e-06
-4.13827e-07
-3.39186e-07
2.39327e-06
2.56892e-06
-6.85081e-07
2.58268e-06
4.65295e-07
2.59694e-06
5.12163e-07
2.61153e-06
2.8099e-07
2.58174e-06
-7.48552e-07
2.54757e-06
-1.37985e-06
2.55169e-06
3.31011e-08
2.55175e-06
-2.01605e-07
2.61554e-06
1.44218e-06
2.60011e-06
1.94719e-07
2.63748e-06
5.09086e-07
2.61672e-06
-2.42954e-08
2.62176e-06
-4.01356e-07
2.60386e-06
-4.16248e-07
2.58581e-06
-7.17667e-07
2.57668e-06
-5.65266e-07
2.55087e-06
-6.08449e-07
2.54034e-06
-5.62535e-07
2.52359e-06
-3.97071e-07
-3.2468e-07
2.50908e-06
2.69181e-06
-6.69064e-07
2.70565e-06
4.51455e-07
2.7191e-06
4.98719e-07
2.7356e-06
2.64488e-07
2.70623e-06
-7.19183e-07
2.67075e-06
-1.34438e-06
2.67353e-06
3.03256e-08
2.66968e-06
-1.97754e-07
2.73447e-06
1.37739e-06
2.71958e-06
2.09606e-07
2.75873e-06
4.69939e-07
2.73916e-06
-4.72273e-09
2.74435e-06
-4.06547e-07
2.72792e-06
-3.99819e-07
2.70779e-06
-6.9754e-07
2.70052e-06
-5.57996e-07
2.67305e-06
-5.80976e-07
2.66215e-06
-5.5163e-07
2.64727e-06
-3.82194e-07
-3.08477e-07
2.63106e-06
2.82056e-06
-6.52352e-07
2.83489e-06
4.37118e-07
2.84743e-06
4.86181e-07
2.86551e-06
2.46405e-07
2.83617e-06
-6.89844e-07
2.79964e-06
-1.30784e-06
2.80148e-06
2.84879e-08
2.79439e-06
-1.90664e-07
2.86039e-06
1.31138e-06
2.84591e-06
2.24082e-07
2.88659e-06
4.29264e-07
2.86819e-06
1.36805e-08
2.87278e-06
-4.11137e-07
2.85825e-06
-3.85296e-07
2.83551e-06
-6.74801e-07
2.83003e-06
-5.52509e-07
2.80159e-06
-5.52536e-07
2.78921e-06
-5.39256e-07
2.77688e-06
-3.69858e-07
-2.91125e-07
2.75952e-06
2.95546e-06
-6.34916e-07
2.97064e-06
4.2194e-07
2.98218e-06
4.74638e-07
3.00154e-06
2.27046e-07
2.97193e-06
-6.60236e-07
2.93456e-06
-1.27047e-06
2.93604e-06
2.7006e-08
2.92636e-06
-1.8098e-07
2.9937e-06
1.24405e-06
2.97942e-06
2.38361e-07
3.02109e-06
3.87588e-07
3.004e-06
3.07701e-08
3.0072e-06
-4.14331e-07
2.99499e-06
-3.73092e-07
2.96938e-06
-6.49185e-07
2.96527e-06
-5.484e-07
2.93684e-06
-5.24104e-07
2.92201e-06
-5.2443e-07
2.91252e-06
-3.60366e-07
-2.73376e-07
2.89477e-06
3.09683e-06
-6.16741e-07
3.11311e-06
4.0566e-07
3.1236e-06
4.6415e-07
3.14397e-06
2.06675e-07
3.11393e-06
-6.30198e-07
3.07583e-06
-1.23237e-06
3.07752e-06
2.53129e-08
3.06576e-06
-1.69221e-07
3.13447e-06
1.17534e-06
3.12026e-06
2.52569e-07
3.16228e-06
3.45567e-07
3.1468e-06
4.62473e-08
3.14783e-06
-4.15365e-07
3.13827e-06
-3.6353e-07
3.10984e-06
-6.2075e-07
3.10641e-06
-5.44969e-07
3.07906e-06
-4.96754e-07
3.06117e-06
-5.06546e-07
3.05425e-06
-3.53444e-07
-2.56235e-07
3.03711e-06
3.24498e-06
-5.97814e-07
3.26254e-06
3.88104e-07
3.27195e-06
4.54742e-07
3.29311e-06
1.85518e-07
3.26261e-06
-5.997e-07
3.22377e-06
-1.19353e-06
3.22615e-06
2.29332e-08
3.2127e-06
-1.55766e-07
3.28269e-06
1.10535e-06
3.26858e-06
2.66674e-07
3.31022e-06
3.03931e-07
3.29679e-06
5.9678e-08
3.29496e-06
-4.13539e-07
3.28822e-06
-3.56784e-07
3.25736e-06
-5.89897e-07
3.25368e-06
-5.4128e-07
3.22842e-06
-4.71497e-07
3.20744e-06
-4.85572e-07
3.20219e-06
-3.48187e-07
-2.40759e-07
3.18671e-06
3.40024e-06
-5.78126e-07
3.41917e-06
3.69173e-07
3.42752e-06
4.46394e-07
3.44927e-06
1.63769e-07
3.41842e-06
-5.68848e-07
3.37874e-06
-1.15386e-06
3.38217e-06
1.95042e-08
3.36729e-06
-1.40879e-07
3.43836e-06
1.03428e-06
3.42457e-06
2.80468e-07
3.46508e-06
2.63417e-07
3.45418e-06
7.0577e-08
3.44893e-06
-4.08287e-07
3.44498e-06
-3.52836e-07
3.41239e-06
-5.57304e-07
3.40743e-06
-5.36326e-07
3.38506e-06
-4.4912e-07
3.36145e-06
-4.61964e-07
3.35661e-06
-3.43343e-07
-2.2784e-07
3.34369e-06
3.56295e-06
-5.57669e-07
3.58328e-06
3.48847e-07
3.59064e-06
4.39034e-07
3.6128e-06
1.4161e-07
3.58181e-06
-5.37861e-07
3.5411e-06
-1.11314e-06
3.54583e-06
1.47739e-08
3.52971e-06
-1.24759e-07
3.60153e-06
9.62452e-07
3.58843e-06
2.93573e-07
3.62709e-06
2.2476e-07
3.61922e-06
7.84388e-08
3.61017e-06
-3.99234e-07
3.60874e-06
-3.51407e-07
3.57531e-06
-5.23874e-07
3.56812e-06
-5.29139e-07
3.54909e-06
-4.30084e-07
3.52361e-06
-4.36484e-07
3.51801e-06
-3.37749e-07
-2.17927e-07
3.5081e-06
3.73347e-06
-5.36438e-07
3.75515e-06
3.27177e-07
3.76164e-06
4.32542e-07
3.78402e-06
1.19229e-07
3.75321e-06
-5.07048e-07
3.7112e-06
-1.07114e-06
3.71739e-06
8.59095e-09
3.70023e-06
-1.07599e-07
3.77234e-06
8.90339e-07
3.76044e-06
3.05473e-07
3.79655e-06
1.88649e-07
3.79217e-06
8.28183e-08
3.77921e-06
-3.86267e-07
3.77973e-06
-3.51933e-07
3.74649e-06
-4.9063e-07
3.73627e-06
-5.18926e-07
3.72062e-06
-4.14425e-07
3.6943e-06
-4.10166e-07
3.68698e-06
-3.30433e-07
-2.10958e-07
3.68001e-06
3.91219e-06
-5.14436e-07
3.9351e-06
3.04267e-07
3.9409e-06
4.26741e-07
3.96328e-06
9.68454e-08
3.933e-06
-4.76771e-07
3.88947e-06
-1.02761e-06
3.89717e-06
8.91842e-10
3.87921e-06
-8.96397e-08
3.95102e-06
8.18525e-07
3.94094e-06
3.15557e-07
3.97388e-06
1.55709e-07
3.97328e-06
8.34166e-08
3.95658e-06
-3.69566e-07
3.95824e-06
-3.53601e-07
3.92624e-06
-4.58623e-07
3.91247e-06
-5.05161e-07
3.89981e-06
-4.01764e-07
3.87378e-06
-3.84139e-07
3.86413e-06
-3.20774e-07
-2.0648e-07
3.85965e-06
4.09949e-06
-4.91677e-07
4.12349e-06
2.80268e-07
4.12882e-06
4.21415e-07
4.15094e-06
7.47219e-08
4.12158e-06
-4.47412e-07
4.07631e-06
-9.82332e-07
4.08551e-06
-8.30754e-09
4.06706e-06
-7.11993e-08
4.13792e-06
7.47675e-07
4.13026e-06
3.23214e-07
4.15953e-06
1.26442e-07
4.16278e-06
8.01628e-08
4.1428e-06
-3.49591e-07
4.14469e-06
-3.55483e-07
4.11476e-06
-4.28699e-07
4.09742e-06
-4.87814e-07
4.08693e-06
-3.91277e-07
4.06221e-06
-3.59424e-07
4.05012e-06
-3.08683e-07
-2.03602e-07
4.04725e-06
4.29582e-06
-4.68196e-07
4.32073e-06
2.55355e-07
4.32584e-06
4.16313e-07
4.34738e-06
5.31751e-08
4.31931e-06
-4.1934e-07
4.27217e-06
-9.35186e-07
4.28278e-06
-1.89194e-08
4.26425e-06
-5.26724e-08
4.33343e-06
6.78491e-07
4.32878e-06
3.27872e-07
4.35401e-06
1.01211e-07
4.3609e-06
7.32664e-08
4.33839e-06
-3.27073e-07
4.3395e-06
-3.56601e-07
4.31227e-06
-4.01467e-07
4.29166e-06
-4.67208e-07
4.28235e-06
-3.81965e-07
4.25974e-06
-3.36814e-07
4.24554e-06
-2.94479e-07
-2.01268e-07
4.2432e-06
4.50163e-06
-4.44053e-07
4.52726e-06
2.29723e-07
4.53241e-06
4.11162e-07
4.55302e-06
3.25674e-08
4.52657e-06
-3.92893e-07
4.47753e-06
-8.86142e-07
4.48938e-06
-3.07705e-08
4.47123e-06
-3.45242e-08
4.53804e-06
6.11689e-07
4.53686e-06
3.29048e-07
4.55785e-06
8.02164e-08
4.56792e-06
6.32007e-08
4.54378e-06
-3.02937e-07
4.54318e-06
-3.55995e-07
4.519e-06
-3.77288e-07
4.49571e-06
-4.43922e-07
4.48652e-06
-3.72769e-07
4.46658e-06
-3.16875e-07
4.45082e-06
-2.78722e-07
-1.9854e-07
4.44809e-06
4.7174e-06
-4.19335e-07
4.74354e-06
2.03574e-07
4.74902e-06
4.05684e-07
4.7683e-06
1.32917e-08
4.74377e-06
-3.6836e-07
4.69296e-06
-8.35332e-07
4.70573e-06
-4.35482e-08
4.68849e-06
-1.72757e-08
4.75221e-06
5.47961e-07
4.75486e-06
3.26399e-07
4.77162e-06
6.34556e-08
4.78417e-06
5.06537e-08
4.75947e-06
-2.78237e-07
4.7563e-06
-3.52827e-07
4.73525e-06
-3.56238e-07
4.71012e-06
-4.18795e-07
4.70007e-06
-3.62712e-07
4.68298e-06
-2.99788e-07
4.66647e-06
-2.62211e-07
-1.94602e-07
4.66253e-06
4.94362e-06
-3.94153e-07
4.97006e-06
1.77125e-07
4.97615e-06
3.99603e-07
4.99368e-06
-4.24447e-09
4.9713e-06
-3.45979e-07
4.91901e-06
-7.83043e-07
4.93229e-06
-5.68211e-08
4.91646e-06
-1.45496e-09
4.97649e-06
4.87937e-07
4.98313e-06
3.1976e-07
4.99587e-06
5.07101e-08
5.0101e-06
3.64314e-08
4.98581e-06
-2.53951e-07
4.97951e-06
-3.46523e-07
4.96144e-06
-3.38169e-07
4.93546e-06
-3.92824e-07
4.92386e-06
-3.51112e-07
4.90932e-06
-2.85242e-07
4.89291e-06
-2.45802e-07
-1.88981e-07
4.88729e-06
5.1808e-06
-3.6864e-07
5.20732e-06
1.50606e-07
5.21426e-06
3.92666e-07
5.22968e-06
-1.96679e-08
5.20961e-06
-3.25904e-07
5.15626e-06
-7.29698e-07
5.16952e-06
-7.00774e-08
5.15561e-06
1.24572e-08
5.21145e-06
4.32095e-07
5.222e-06
3.09214e-07
5.23119e-06
4.15147e-08
5.24622e-06
2.13988e-08
5.22316e-06
-2.30889e-07
5.21359e-06
-3.36948e-07
5.19801e-06
-3.22593e-07
5.17216e-06
-3.66972e-07
5.15872e-06
-3.37673e-07
5.14606e-06
-2.72579e-07
5.13046e-06
-2.30209e-07
-1.81714e-07
5.1232e-06
5.42949e-06
-3.42942e-07
5.45583e-06
1.24268e-07
5.46384e-06
3.84657e-07
5.47683e-06
-3.26601e-08
5.45914e-06
-3.08208e-07
5.40529e-06
-6.75849e-07
5.41795e-06
-8.27401e-08
5.40639e-06
2.4015e-08
5.45769e-06
3.80791e-07
5.47186e-06
2.95047e-07
5.47814e-06
3.52412e-08
5.49314e-06
6.39218e-09
5.47194e-06
-2.0969e-07
5.45933e-06
-3.24335e-07
5.44553e-06
-3.08793e-07
5.42057e-06
-3.42009e-07
5.40537e-06
-3.22473e-07
5.39375e-06
-2.60957e-07
5.37956e-06
-2.16021e-07
-1.73096e-07
5.37094e-06
5.69024e-06
-3.1722e-07
5.71612e-06
9.8381e-08
5.72536e-06
3.75417e-07
5.73572e-06
-4.30142e-08
5.72038e-06
-2.92872e-07
5.66666e-06
-6.22124e-07
5.67815e-06
-9.42311e-08
5.66929e-06
3.28758e-08
5.71588e-06
3.34196e-07
5.73317e-06
2.77755e-07
5.73725e-06
3.11622e-08
5.75152e-06
-7.87752e-09
5.73258e-06
-1.90746e-07
5.71735e-06
-3.09104e-07
5.7046e-06
-2.9605e-07
5.68106e-06
-3.1847e-07
5.66444e-06
-3.05847e-07
5.6531e-06
-2.49615e-07
5.64054e-06
-2.03463e-07
-1.63715e-07
5.63116e-06
5.96361e-06
-2.91638e-07
5.98876e-06
7.32362e-08
5.99933e-06
3.64839e-07
6.00699e-06
-5.06683e-08
5.99386e-06
-2.79748e-07
5.94092e-06
-5.6918e-07
5.95072e-06
-1.04028e-07
5.94479e-06
3.88068e-08
5.9867e-06
2.92281e-07
6.00646e-06
2.57991e-07
6.00908e-06
2.85507e-08
6.02205e-06
-2.08472e-08
6.00554e-06
-1.74237e-07
5.98826e-06
-2.91823e-07
5.97591e-06
-2.83708e-07
5.95408e-06
-2.96636e-07
5.9365e-06
-2.88263e-07
5.92493e-06
-2.38048e-07
5.91378e-06
-1.92314e-07
-1.54295e-07
5.90436e-06
6.25022e-06
-2.66372e-07
6.27432e-06
4.91335e-08
6.28631e-06
3.52858e-07
6.29136e-06
-5.57178e-08
6.28017e-06
-2.68564e-07
6.22862e-06
-5.1763e-07
6.2363e-06
-1.11707e-07
6.23341e-06
4.16974e-08
6.27084e-06
2.54856e-07
6.29232e-06
2.36504e-07
6.29416e-06
2.67089e-08
6.30545e-06
-3.21332e-08
6.29129e-06
-1.60078e-07
6.27268e-06
-2.73214e-07
6.26023e-06
-2.71255e-07
6.24008e-06
-2.7649e-07
6.22205e-06
-2.70227e-07
6.21009e-06
-2.2609e-07
6.19983e-06
-1.82052e-07
-1.45426e-07
6.19096e-06
6.5507e-06
-2.41605e-07
6.57346e-06
2.63801e-08
6.58697e-06
3.39341e-07
6.58953e-06
-5.82738e-08
6.57995e-06
-2.5899e-07
6.53035e-06
-4.68021e-07
6.53561e-06
-1.16972e-07
6.53567e-06
4.16339e-08
6.56897e-06
2.21555e-07
6.59145e-06
2.14033e-07
6.59305e-06
2.51062e-08
6.60248e-06
-4.15614e-08
6.59042e-06
-1.48023e-07
6.57117e-06
-2.53962e-07
6.55824e-06
-2.58326e-07
6.53968e-06
-2.57926e-07
6.52168e-06
-2.52236e-07
6.50926e-06
-2.1367e-07
6.49945e-06
-1.72237e-07
-1.37328e-07
6.49135e-06
6.86572e-06
-2.17532e-07
6.8868e-06
5.29853e-09
6.90204e-06
3.24095e-07
6.90219e-06
-5.84145e-08
6.89387e-06
-2.50676e-07
6.84675e-06
-4.20897e-07
6.84936e-06
-1.1958e-07
6.85213e-06
3.88652e-08
6.88181e-06
1.91866e-07
6.90458e-06
1.9127e-07
6.90631e-06
2.33768e-08
6.91383e-06
-4.90814e-08
6.90358e-06
-1.37779e-07
6.88423e-06
-2.34609e-07
6.87067e-06
-2.44762e-07
6.85354e-06
-2.408e-07
6.83589e-06
-2.34582e-07
6.8232e-06
-2.00985e-07
6.8135e-06
-1.62541e-07
-1.29849e-07
6.80603e-06
7.19596e-06
-1.94355e-07
7.21503e-06
-1.37743e-08
7.23221e-06
3.06916e-07
7.22999e-06
-5.61973e-08
7.22258e-06
-2.43256e-07
7.17852e-06
-3.7684e-07
7.17833e-06
-1.19392e-07
7.18338e-06
3.38185e-08
7.21004e-06
1.65204e-07
7.23249e-06
1.68816e-07
7.23453e-06
2.13388e-08
7.2402e-06
-5.47477e-08
7.23147e-06
-1.29047e-07
7.21239e-06
-2.15533e-07
7.19824e-06
-2.30616e-07
7.18235e-06
-2.24907e-07
7.16532e-06
-2.17557e-07
7.15251e-06
-1.88174e-07
7.14281e-06
-1.52833e-07
-1.22707e-07
7.13566e-06
7.54215e-06
-1.72283e-07
7.55887e-06
-3.04873e-08
7.57816e-06
2.87619e-07
7.57368e-06
-5.17129e-08
7.56675e-06
-2.36327e-07
7.5263e-06
-3.36396e-07
7.52342e-06
-1.16503e-07
7.53007e-06
2.71657e-08
7.55428e-06
1.40993e-07
7.57597e-06
1.47124e-07
7.57843e-06
1.88801e-08
7.58231e-06
-5.86256e-08
7.57471e-06
-1.21449e-07
7.55626e-06
-1.9708e-07
7.54169e-06
-2.16051e-07
7.52678e-06
-2.09999e-07
7.51063e-06
-2.01407e-07
7.49782e-06
-1.75359e-07
7.48816e-06
-1.43172e-07
-1.15634e-07
7.48108e-06
7.90504e-06
-1.51516e-07
7.91907e-06
-4.45138e-08
7.94057e-06
2.66122e-07
7.93401e-06
-4.51571e-08
7.92712e-06
-2.29438e-07
7.89078e-06
-3.00051e-07
7.88547e-06
-1.1119e-07
7.89297e-06
1.96647e-08
7.91514e-06
1.18822e-07
7.9358e-06
1.26457e-07
7.93864e-06
1.60413e-08
7.94086e-06
-6.08388e-08
7.93399e-06
-1.14583e-07
7.91645e-06
-1.7954e-07
7.90163e-06
-2.01226e-07
7.88756e-06
-1.95936e-07
7.87246e-06
-1.863e-07
7.85979e-06
-1.62694e-07
7.85029e-06
-1.33673e-07
-1.08499e-07
7.84316e-06
8.28539e-06
-1.32229e-07
8.2964e-06
-5.55243e-08
8.32003e-06
2.42496e-07
8.31186e-06
-3.6986e-08
8.30452e-06
-2.22096e-07
8.27263e-06
-2.68169e-07
8.26531e-06
-1.03862e-07
8.27282e-06
1.2146e-08
8.29328e-06
9.8366e-08
8.31272e-06
1.07022e-07
8.3158e-06
1.2958e-08
8.31652e-06
-6.15564e-08
8.30997e-06
-1.08037e-07
8.2936e-06
-1.63171e-07
8.27874e-06
-1.86365e-07
8.26538e-06
-1.82575e-07
8.25142e-06
-1.72338e-07
8.23914e-06
-1.50418e-07
8.22987e-06
-1.24399e-07
-1.01359e-07
8.22273e-06
8.68399e-06
-1.14552e-07
8.69167e-06
-6.32084e-08
8.71716e-06
2.1701e-07
8.70815e-06
-2.79785e-08
8.6997e-06
-2.1365e-07
8.6722e-06
-2.40669e-07
8.6636e-06
-9.52545e-08
8.67049e-06
5.25451e-09
8.68928e-06
7.9569e-08
8.70727e-06
8.90389e-08
8.71043e-06
9.79227e-09
8.70973e-06
-6.08558e-08
8.70344e-06
-1.01748e-07
8.68842e-06
-1.48144e-07
8.6738e-06
-1.71745e-07
8.66097e-06
-1.69752e-07
8.64822e-06
-1.59584e-07
8.63663e-06
-1.3883e-07
8.62753e-06
-1.15301e-07
-9.44466e-08
8.62062e-06
9.10163e-06
-9.85591e-08
9.10601e-06
-6.7597e-08
9.13261e-06
1.90411e-07
9.12393e-06
-1.92919e-08
9.11361e-06
-2.03335e-07
9.09009e-06
-2.17148e-07
9.08107e-06
-8.6233e-08
9.08677e-06
-4.46918e-10
9.10364e-06
6.26954e-08
9.11991e-06
7.27745e-08
9.12295e-06
6.75182e-09
9.12117e-06
-5.90759e-08
9.11539e-06
-9.59726e-08
9.10181e-06
-1.34557e-07
9.08765e-06
-1.57587e-07
9.07533e-06
-1.57428e-07
9.06362e-06
-1.47883e-07
9.05299e-06
-1.28196e-07
9.04415e-06
-1.06456e-07
-8.78034e-08
9.0375e-06
9.53915e-06
-8.4246e-08
9.54064e-06
-6.90887e-08
9.5673e-06
1.63755e-07
9.56021e-06
-1.22084e-08
9.54752e-06
-1.90647e-07
9.52705e-06
-1.9667e-07
9.51828e-06
-7.7472e-08
9.52252e-06
-4.68465e-09
9.53701e-06
4.82117e-08
9.55146e-06
5.83174e-08
9.55431e-06
3.90721e-09
9.55217e-06
-5.69348e-08
9.54704e-06
-9.0845e-08
9.53487e-06
-1.22391e-07
9.52135e-06
-1.4406e-07
9.50949e-06
-1.45572e-07
9.49859e-06
-1.36983e-07
9.48903e-06
-1.18633e-07
9.48069e-06
-9.81174e-08
-8.12617e-08
9.47415e-06
9.99744e-06
-7.15478e-08
9.9967e-06
-6.83491e-08
1.00222e-05
1.38223e-07
1.00177e-05
-7.63004e-09
1.00027e-05
-1.7569e-07
9.984e-06
-1.77978e-07
9.97581e-06
-6.92765e-08
9.97881e-06
-7.68679e-09
9.99092e-06
3.6102e-08
1.00035e-05
4.5746e-08
1.00064e-05
1.00462e-09
1.00043e-05
-5.48525e-08
9.99964e-06
-8.61787e-08
9.9888e-06
-1.11544e-07
9.97598e-06
-1.31243e-07
9.96453e-06
-1.34121e-07
9.95429e-06
-1.26743e-07
9.94563e-06
-1.09977e-07
9.93811e-06
-9.05921e-08
-7.48052e-08
9.93165e-06
1.04774e-05
-6.03425e-08
1.04752e-05
-6.61437e-08
1.04986e-05
1.14816e-07
1.04968e-05
-5.79381e-09
1.04802e-05
-1.59141e-07
1.04623e-05
-1.60057e-07
1.04548e-05
-6.17476e-08
1.0457e-05
-9.85225e-09
1.0467e-05
2.60346e-08
1.04778e-05
3.49456e-08
1.04808e-05
-1.96705e-09
1.04786e-05
-5.26494e-08
1.04743e-05
-8.18925e-08
1.04647e-05
-1.0195e-07
1.04526e-05
-1.19163e-07
1.04416e-05
-1.23099e-07
1.04319e-05
-1.17034e-07
1.04239e-05
-1.01965e-07
1.04174e-05
-8.40551e-08
-6.85539e-08
1.04111e-05
1.09801e-05
-5.04635e-08
1.09772e-05
-6.31765e-08
1.09979e-05
9.40493e-08
1.09983e-05
-6.16766e-09
1.09816e-05
-1.42441e-07
1.09639e-05
-1.42314e-07
1.09567e-05
-5.45947e-08
1.09582e-05
-1.13443e-08
1.09666e-05
1.76126e-08
1.09759e-05
2.56609e-08
1.09786e-05
-4.66596e-09
1.09762e-05
-5.02555e-08
1.09721e-05
-7.77558e-08
1.09637e-05
-9.35764e-08
1.09524e-05
-1.07898e-07
1.09418e-05
-1.12501e-07
1.09326e-05
-1.07823e-07
1.0925e-05
-9.43738e-08
1.09193e-05
-7.82992e-08
-6.29623e-08
1.09137e-05
1.15066e-05
-4.17342e-08
1.15034e-05
-5.99598e-08
1.15215e-05
7.60103e-08
1.15231e-05
-7.85305e-09
1.15077e-05
-1.27021e-07
1.14901e-05
-1.24657e-07
1.14828e-05
-4.72965e-08
1.14836e-05
-1.2211e-08
1.14908e-05
1.04586e-08
1.14987e-05
1.77391e-08
1.15009e-05
-6.85424e-09
1.14983e-05
-4.7612e-08
1.14941e-05
-7.3556e-08
1.14868e-05
-8.63164e-08
1.14765e-05
-9.76213e-08
1.14663e-05
-1.02287e-07
1.14576e-05
-9.91051e-08
1.14503e-05
-8.70677e-08
1.14451e-05
-7.30961e-08
-5.8232e-08
1.14403e-05
1.20581e-05
-3.39772e-08
1.20549e-05
-5.68185e-08
1.20703e-05
6.06296e-08
1.20725e-05
-1.00152e-08
1.20592e-05
-1.13713e-07
1.20421e-05
-1.07613e-07
1.20342e-05
-3.93761e-08
1.20343e-05
-1.23353e-08
1.20404e-05
4.33809e-09
1.20472e-05
1.09756e-08
1.20489e-05
-8.51847e-09
1.20458e-05
-4.45025e-08
1.20414e-05
-6.92441e-08
1.2035e-05
-7.98626e-08
1.20259e-05
-8.85528e-08
1.20162e-05
-9.25239e-08
1.20079e-05
-9.08536e-08
1.20009e-05
-8.01007e-08
1.1996e-05
-6.81171e-08
-5.43558e-08
1.19921e-05
1.26356e-05
-2.70193e-08
1.26329e-05
-5.4041e-08
1.26459e-05
4.7625e-08
1.26477e-05
-1.18231e-08
1.26367e-05
-1.02773e-07
1.26213e-05
-9.21712e-08
1.26123e-05
-3.03505e-08
1.26113e-05
-1.13738e-08
1.26165e-05
-8.31772e-10
1.26225e-05
4.97834e-09
1.26237e-05
-9.71377e-09
1.262e-05
-4.08575e-08
1.26154e-05
-6.46682e-08
1.26095e-05
-7.39607e-08
1.26017e-05
-8.07037e-08
1.25926e-05
-8.34789e-08
1.25847e-05
-8.29226e-08
1.25783e-05
-7.36708e-08
1.25733e-05
-6.31668e-08
-5.09993e-08
1.257e-05
1.32406e-05
-2.07085e-08
1.32384e-05
-5.18654e-08
1.32494e-05
3.66476e-08
1.32504e-05
-1.28066e-08
1.32414e-05
-9.37978e-08
1.32282e-05
-7.89827e-08
1.32183e-05
-2.03574e-08
1.32156e-05
-8.71192e-09
1.32199e-05
-5.178e-09
1.32255e-05
-5.6522e-10
1.32265e-05
-1.06956e-08
1.32224e-05
-3.68434e-08
1.32173e-05
-5.95459e-08
1.32118e-05
-6.84833e-08
1.3205e-05
-7.38254e-08
1.31969e-05
-7.54224e-08
1.31894e-05
-7.53685e-08
1.31834e-05
-6.77027e-08
1.31787e-05
-5.84597e-08
-4.76719e-08
1.31754e-05
1.38744e-05
-1.49614e-08
1.38731e-05
-5.05724e-08
1.38824e-05
2.7395e-08
1.38823e-05
-1.27197e-08
1.38744e-05
-8.58603e-08
1.38637e-05
-6.83108e-08
1.38535e-05
-1.01635e-08
1.38488e-05
-4.00446e-09
1.38519e-05
-8.33765e-09
1.38572e-05
-5.85181e-09
1.38584e-05
-1.1901e-08
1.38543e-05
-3.26739e-08
1.38486e-05
-5.39013e-08
1.38432e-05
-6.3084e-08
1.38371e-05
-6.77127e-08
1.38301e-05
-6.84377e-08
1.38231e-05
-6.83944e-08
1.38175e-05
-6.20695e-08
1.38132e-05
-5.41857e-08
-4.43351e-08
1.38099e-05
1.45385e-05
-9.76292e-09
1.45376e-05
-4.96737e-08
1.45458e-05
1.91507e-08
1.45444e-05
-1.12645e-08
1.45366e-05
-7.81174e-08
1.45285e-05
-6.01474e-08
1.4519e-05
-7.38644e-10
1.45126e-05
2.44017e-09
1.45139e-05
-9.64733e-09
1.45189e-05
-1.08319e-08
1.45207e-05
-1.37255e-08
1.45167e-05
-2.8719e-08
1.45108e-05
-4.79577e-08
1.45051e-05
-5.73977e-08
1.44996e-05
-6.22382e-08
1.44935e-05
-6.23186e-08
1.44874e-05
-6.22596e-08
1.4482e-05
-5.66786e-08
1.44782e-05
-5.04039e-08
-4.11838e-08
1.44751e-05
1.52343e-05
-5.17012e-09
1.52335e-05
-4.8876e-08
1.52411e-05
1.15358e-08
1.52376e-05
-7.72855e-09
1.52292e-05
-6.97108e-08
1.52234e-05
-5.43731e-08
1.52158e-05
6.81036e-09
1.52085e-05
9.79065e-09
1.52077e-05
-8.84594e-09
1.52117e-05
-1.4872e-08
1.52143e-05
-1.63139e-08
1.52112e-05
-2.56097e-08
1.52052e-05
-4.19446e-08
1.51992e-05
-5.14377e-08
1.5194e-05
-5.70214e-08
1.51886e-05
-5.68923e-08
1.51834e-05
-5.70381e-08
1.51784e-05
-5.16811e-08
1.5175e-05
-4.69996e-08
-3.84288e-08
1.51722e-05
1.59634e-05
-1.26712e-09
1.59625e-05
-4.79074e-08
1.59687e-05
5.33057e-09
1.59631e-05
-2.15041e-09
1.59535e-05
-6.00827e-08
1.59496e-05
-5.04829e-08
1.59452e-05
1.11495e-08
1.5938e-05
1.70284e-08
1.59353e-05
-6.1337e-09
1.59376e-05
-1.71957e-08
1.59406e-05
-1.93156e-08
1.59388e-05
-2.38215e-08
1.59332e-05
-3.63515e-08
1.59271e-05
-4.53197e-08
1.59219e-05
-5.1807e-08
1.5917e-05
-5.20128e-08
1.59125e-05
-5.24788e-08
1.59082e-05
-4.74289e-08
1.59049e-05
-4.37316e-08
-3.61824e-08
1.59027e-05
1.67274e-05
1.96522e-09
1.67215e-05
-4.2032e-08
1.67276e-05
-7.59427e-10
1.6723e-05
2.43464e-09
1.6712e-05
-4.90995e-08
1.67092e-05
-4.76474e-08
1.67088e-05
1.15356e-08
1.67026e-05
2.31746e-08
1.66983e-05
-1.7379e-09
1.66987e-05
-1.75959e-08
1.67013e-05
-2.19396e-08
1.67007e-05
-2.32835e-08
1.66963e-05
-3.19446e-08
1.66902e-05
-3.91921e-08
1.6685e-05
-4.66378e-08
1.66803e-05
-4.73215e-08
1.66764e-05
-4.84984e-08
1.66728e-05
-4.38782e-08
1.66698e-05
-4.07226e-08
-3.42972e-08
1.66679e-05
1.75279e-05
4.40813e-09
1.75223e-05
-3.64271e-08
1.75258e-05
-4.26424e-09
1.7521e-05
7.27732e-09
1.75082e-05
-3.63575e-08
1.75049e-05
-4.43552e-08
1.75081e-05
8.38679e-09
1.75039e-05
2.73188e-08
1.74983e-05
3.88209e-09
1.74968e-05
-1.61052e-08
1.74983e-05
-2.34524e-08
1.74986e-05
-2.3507e-08
1.74957e-05
-2.90654e-08
1.74902e-05
-3.36818e-08
1.7485e-05
-4.14643e-08
1.74805e-05
-4.28177e-08
1.74768e-05
-4.47986e-08
1.74738e-05
-4.08768e-08
1.74713e-05
-3.81985e-08
-3.25619e-08
1.74695e-05
1.83666e-05
6.15707e-09
1.83594e-05
-2.92462e-08
1.83619e-05
-6.77934e-09
1.83586e-05
1.05637e-08
1.83452e-05
-2.28834e-08
1.83395e-05
-3.87269e-08
1.83446e-05