/*--------------------------------*- C++ -*----------------------------------*\
| =========                 |                                                 |
| \\      /  F ield         | OpenFOAM: The Open Source CFD Toolbox           |
|  \\    /   O peration     | Version:  2506                                  |
|   \\  /    A nd           | Website:  www.openfoam.com                      |
|    \\/     M anipulation  |                                                 |
\*---------------------------------------------------------------------------*/
FoamFile
{
    version     2.0;
    format      ascii;
    arch        "LSB;label=32;scalar=64";
    class       volVectorField;
    location    "5.85";
    object      U;
}
// * * * * * * * * * * * * * * * * * * * * * * * * * * * * * * * * * * * * * //

dimensions      [0 1 -1 0 0 0 0];

internalField   nonuniform List<vector> 
9600
(
(0.926729 -0.00891123 0)
(1.03458 0.00805008 0)
(0.969055 0.00598899 0)
(0.991174 0.00335971 0)
(0.984089 -0.0140354 0)
(1.03389 -0.0208326 0)
(1.04335 0.00823193 0)
(1.06461 -0.00236332 0)
(1.01228 0.0413677 0)
(1.08811 -0.00521567 0)
(0.928791 0.0184942 0)
(1.07505 -0.00940412 0)
(0.878914 -0.014076 0)
(1.05368 -0.0204809 0)
(0.861055 -0.0349961 0)
(1.04332 -0.0243092 0)
(0.877388 -0.033289 0)
(1.06241 -0.0266956 0)
(0.876074 -0.022434 0)
(1.10083 -0.0227269 0)
(0.935399 -0.00868748 0)
(1.03292 0.0078542 0)
(0.976682 0.00631614 0)
(0.988862 0.00328168 0)
(0.982484 -0.0145344 0)
(1.02623 -0.0214504 0)
(1.04297 0.0076641 0)
(1.06218 -0.00175529 0)
(1.01576 0.0406683 0)
(1.07479 -0.00363863 0)
(0.952668 0.0181828 0)
(1.03741 -0.00826744 0)
(0.944032 -0.01393 0)
(1.0025 -0.0200019 0)
(0.951963 -0.0344357 0)
(0.983832 -0.0250242 0)
(0.962771 -0.0332721 0)
(0.983398 -0.0275772 0)
(0.977148 -0.0226162 0)
(0.988721 -0.0244237 0)
(0.948312 -0.00850766 0)
(1.02868 0.00756868 0)
(0.988752 0.00666553 0)
(0.98578 0.0032773 0)
(0.980045 -0.0148884 0)
(1.0151 -0.0220026 0)
(1.04173 0.00713266 0)
(1.05876 -0.00134914 0)
(1.02082 0.0403245 0)
(1.06327 -0.00278692 0)
(0.977982 0.0185465 0)
(1.02438 -0.00816599 0)
(0.980311 -0.013475 0)
(0.993617 -0.0203307 0)
(0.979217 -0.0339037 0)
(0.971157 -0.0253838 0)
(0.973258 -0.0329733 0)
(0.971995 -0.0280737 0)
(0.977974 -0.0231634 0)
(0.98281 -0.0222082 0)
(0.962747 -0.00838761 0)
(1.02255 0.00726603 0)
(0.999613 0.00697077 0)
(0.983961 0.00342059 0)
(0.977807 -0.0151633 0)
(1.00323 -0.0225811 0)
(1.03858 0.00660565 0)
(1.05513 -0.00100926 0)
(1.02669 0.0402092 0)
(1.05577 -0.00204074 0)
(0.998633 0.0189068 0)
(1.02201 -0.00790777 0)
(0.998188 -0.0129863 0)
(0.995557 -0.0202397 0)
(0.98682 -0.0331466 0)
(0.973937 -0.0253038 0)
(0.974099 -0.0328349 0)
(0.973347 -0.0284345 0)
(0.975007 -0.0231485 0)
(0.98162 -0.0217363 0)
(0.976202 -0.00831117 0)
(1.01578 0.00698761 0)
(1.00577 0.00725865 0)
(0.98486 0.00366726 0)
(0.977459 -0.0153408 0)
(0.99286 -0.0231595 0)
(1.03348 0.00594671 0)
(1.05134 -0.000790929 0)
(1.03228 0.0400592 0)
(1.05259 -0.00145467 0)
(1.01197 0.0191598 0)
(1.02471 -0.00761208 0)
(1.00743 -0.0126253 0)
(0.999922 -0.0200419 0)
(0.990963 -0.0324385 0)
(0.978483 -0.0253046 0)
(0.977237 -0.0324757 0)
(0.973657 -0.028608 0)
(0.97553 -0.0231663 0)
(0.978556 -0.0215394 0)
(0.986795 -0.00826474 0)
(1.00936 0.00676771 0)
(1.00709 0.00749968 0)
(0.988514 0.00394803 0)
(0.980081 -0.0153973 0)
(0.984742 -0.0237025 0)
(1.02743 0.00514062 0)
(1.04657 -0.000723919 0)
(1.03729 0.039824 0)
(1.05064 -0.000903051 0)
(1.01983 0.0193063 0)
(1.02766 -0.00722456 0)
(1.01282 -0.0122625 0)
(1.00305 -0.0196839 0)
(0.993511 -0.0317069 0)
(0.981192 -0.0252119 0)
(0.97972 -0.0319756 0)
(0.974272 -0.0287277 0)
(0.975633 -0.0232051 0)
(0.976852 -0.0212036 0)
(0.993761 -0.00823124 0)
(1.00379 0.00661368 0)
(1.00563 0.00765913 0)
(0.993801 0.00420013 0)
(0.985338 -0.0153163 0)
(0.978805 -0.0241571 0)
(1.02114 0.00426345 0)
(1.03981 -0.0007913 0)
(1.04083 0.0395258 0)
(1.04795 -0.000345532 0)
(1.02377 0.019364 0)
(1.03007 -0.00679424 0)
(1.01654 -0.011892 0)
(1.00597 -0.0192697 0)
(0.995992 -0.0309716 0)
(0.983489 -0.0250316 0)
(0.981513 -0.0315417 0)
(0.975564 -0.0287776 0)
(0.975815 -0.0231839 0)
(0.976457 -0.0207171 0)
(0.997416 -0.00819258 0)
(0.999313 0.00651082 0)
(1.00365 0.0077277 0)
(0.999315 0.00438444 0)
(0.991852 -0.0151028 0)
(0.974945 -0.0244717 0)
(1.01454 0.00339518 0)
(1.03009 -0.000982302 0)
(1.04168 0.0391427 0)
(1.04317 0.000229483 0)
(1.02526 0.0193062 0)
(1.03153 -0.0063389 0)
(1.01916 -0.0115439 0)
(1.00865 -0.0188047 0)
(0.998335 -0.0301985 0)
(0.985598 -0.024791 0)
(0.982956 -0.031159 0)
(0.976733 -0.0286897 0)
(0.976224 -0.0231358 0)
(0.976827 -0.0202335 0)
(0.998692 -0.00813506 0)
(0.996055 0.00643395 0)
(1.00244 0.00770802 0)
(1.00404 0.00448497 0)
(0.998111 -0.0147784 0)
(0.973129 -0.024622 0)
(1.00742 0.00260833 0)
(1.0175 -0.00127172 0)
(1.03902 0.0386478 0)
(1.03643 0.000802935 0)
(1.02547 0.0190952 0)
(1.03219 -0.00588333 0)
(1.02111 -0.0112452 0)
(1.0112 -0.0182804 0)
(1.00083 -0.0294334 0)
(0.988024 -0.0244864 0)
(0.984555 -0.0307572 0)
(0.977648 -0.0285042 0)
(0.976482 -0.0231181 0)
(0.9774 -0.0198499 0)
(0.99863 -0.00805261 0)
(0.994027 0.006355 0)
(1.00227 0.00761594 0)
(1.00756 0.00450863 0)
(1.0031 -0.0143758 0)
(0.973146 -0.0246047 0)
(1.00015 0.00197341 0)
(1.00371 -0.00161753 0)
(1.0334 0.038021 0)
(1.02902 0.00133565 0)
(1.02531 0.0186963 0)
(1.03224 -0.00542957 0)
(1.02241 -0.0110104 0)
(1.01346 -0.0177138 0)
(1.00317 -0.028702 0)
(0.990806 -0.0240799 0)
(0.986462 -0.0303131 0)
(0.978434 -0.0282335 0)
(0.976365 -0.0231113 0)
(0.977591 -0.0195544 0)
(0.998086 -0.00794665 0)
(0.993051 0.00625421 0)
(1.00283 0.00747514 0)
(1.00993 0.00447807 0)
(1.00648 -0.0139335 0)
(0.97451 -0.0244341 0)
(0.993702 0.00152894 0)
(0.991482 -0.00198705 0)
(1.02655 0.0372468 0)
(1.0228 0.00178784 0)
(1.0252 0.0181062 0)
(1.03191 -0.00495359 0)
(1.02295 -0.0108504 0)
(1.01513 -0.0171158 0)
(1.00504 -0.0279992 0)
(0.993606 -0.0235945 0)
(0.988603 -0.0298077 0)
(0.979269 -0.0278528 0)
(0.976004 -0.0230297 0)
(0.977116 -0.0193313 0)
(0.997639 -0.00782311 0)
(0.992782 0.00612645 0)
(1.00362 0.00730249 0)
(1.01137 0.00442501 0)
(1.00841 -0.0134733 0)
(0.976608 -0.0241474 0)
(0.989063 0.0012553 0)
(0.983249 -0.00236212 0)
(1.02036 0.0363213 0)
(1.01908 0.00215027 0)
(1.02491 0.0173658 0)
(1.03117 -0.00442854 0)
(1.02266 -0.0107687 0)
(1.01589 -0.0164793 0)
(1.00623 -0.0273426 0)
(0.99587 -0.0230699 0)
(0.990675 -0.0292092 0)
(0.980241 -0.0273481 0)
(0.9757 -0.0228069 0)
(0.976153 -0.0191766 0)
(0.997594 -0.00768848 0)
(0.992827 0.00597489 0)
(1.0042 0.00711334 0)
(1.01209 0.00436115 0)
(1.00935 -0.0130064 0)
(0.978923 -0.0237835 0)
(0.986567 0.001093 0)
(0.979795 -0.00272486 0)
(1.01573 0.0352615 0)
(1.01785 0.00245292 0)
(1.02397 0.0165427 0)
(1.02985 -0.003846 0)
(1.02169 -0.0107447 0)
(1.01557 -0.0158211 0)
(1.00681 -0.0267285 0)
(0.997243 -0.0225354 0)
(0.992334 -0.0285207 0)
(0.981334 -0.0267508 0)
(0.975704 -0.022409 0)
(0.975169 -0.0190333 0)
(0.998004 -0.00754815 0)
(0.992881 0.00580862 0)
(1.0043 0.00691859 0)
(1.01219 0.00428093 0)
(1.00975 -0.0125413 0)
(0.981168 -0.0233724 0)
(0.985753 0.000976743 0)
(0.979985 -0.00305417 0)
(1.01236 0.0341052 0)
(1.01796 0.00273913 0)
(1.02209 0.0157 0)
(1.02779 -0.00322323 0)
(1.02037 -0.0107556 0)
(1.01433 -0.0151705 0)
(1.00699 -0.0261459 0)
(0.997773 -0.0220152 0)
(0.993377 -0.0277723 0)
(0.982478 -0.0261328 0)
(0.976085 -0.0218111 0)
(0.974585 -0.0188063 0)
(0.998727 -0.00740533 0)
(0.992798 0.00563876 0)
(1.00388 0.00672428 0)
(1.01178 0.0041832 0)
(1.00994 -0.0120796 0)
(0.983253 -0.0229303 0)
(0.985764 0.000866301 0)
(0.98174 -0.00332876 0)
(1.00933 0.0328944 0)
(1.01797 0.00303876 0)
(1.01945 0.0148727 0)
(1.02514 -0.00259416 0)
(1.01904 -0.0107959 0)
(1.01263 -0.0145349 0)
(1.00694 -0.0255975 0)
(0.997809 -0.0215261 0)
(0.993824 -0.0269718 0)
(0.983577 -0.025552 0)
(0.97675 -0.0210689 0)
(0.97454 -0.0184417 0)
(0.999537 -0.00726082 0)
(0.992588 0.00547393 0)
(1.00312 0.00653389 0)
(1.01106 0.00406333 0)
(1.01005 -0.0116277 0)
(0.985157 -0.0224612 0)
(0.985896 0.000755425 0)
(0.983358 -0.00353096 0)
(1.00602 0.0316612 0)
(1.01706 0.00335884 0)
(1.01655 0.0140589 0)
(1.02228 -0.0019852 0)
(1.01788 -0.0108651 0)
(1.01095 -0.0139213 0)
(1.00677 -0.025071 0)
(0.997719 -0.0210724 0)
(0.993859 -0.0261174 0)
(0.984541 -0.0250462 0)
(0.977546 -0.0202495 0)
(0.974911 -0.0179696 0)
(1.00024 -0.00711357 0)
(0.992349 0.00531686 0)
(1.00227 0.00635089 0)
(1.01025 0.00391551 0)
(1.0101 -0.011189 0)
(0.986842 -0.021967 0)
(0.985864 0.000654995 0)
(0.984179 -0.00365094 0)
(1.00247 0.0304186 0)
(1.01528 0.00369429 0)
(1.01389 0.0132304 0)
(1.0196 -0.00140147 0)
(1.01692 -0.0109732 0)
(1.00957 -0.0133289 0)
(1.00651 -0.024544 0)
(0.997692 -0.0206655 0)
(0.993706 -0.0252056 0)
(0.985325 -0.0246032 0)
(0.97835 -0.0194085 0)
(0.975486 -0.0174007 0)
(1.00073 -0.00696196 0)
(0.992179 0.00516568 0)
(1.0015 0.00617688 0)
(1.00949 0.00373829 0)
(1.01004 -0.010762 0)
(0.98825 -0.0214501 0)
(0.985717 0.000577994 0)
(0.984369 -0.00368971 0)
(0.999134 0.0291646 0)
(1.01314 0.00402882 0)
(1.01176 0.0123699 0)
(1.01736 -0.000851476 0)
(1.01613 -0.0111134 0)
(1.00854 -0.012763 0)
(1.00621 -0.02399 0)
(0.997748 -0.020318 0)
(0.993524 -0.0242183 0)
(0.985943 -0.0241816 0)
(0.979111 -0.0186024 0)
(0.976109 -0.01671 0)
(1.00102 -0.00680454 0)
(0.992131 0.0050164 0)
(1.00091 0.00601171 0)
(1.00887 0.0035354 0)
(1.00985 -0.0103436 0)
(0.989352 -0.0209135 0)
(0.985595 0.000525621 0)
(0.984345 -0.00365003 0)
(0.996461 0.0278913 0)
(1.01113 0.00435413 0)
(1.0102 0.0114677 0)
(1.01558 -0.000337772 0)
(1.01545 -0.0112636 0)
(1.00778 -0.0122442 0)
(1.00587 -0.0233659 0)
(0.997842 -0.0200509 0)
(0.993371 -0.0231383 0)
(0.986442 -0.0237523 0)
(0.979834 -0.0178827 0)
(0.976719 -0.0159 0)
(1.00114 -0.00664025 0)
(0.992205 0.00486334 0)
(1.00048 0.00585744 0)
(1.00837 0.00330925 0)
(1.00955 -0.00992969 0)
(0.99017 -0.0203594 0)
(0.985586 0.000492019 0)
(0.984406 -0.00354564 0)
(0.994605 0.0265973 0)
(1.00951 0.00467433 0)
(1.00913 0.0105247 0)
(1.01419 0.000151339 0)
(1.01485 -0.0114093 0)
(1.00717 -0.0117814 0)
(1.00552 -0.0226477 0)
(0.997944 -0.0198593 0)
(0.993249 -0.02201 0)
(0.986863 -0.023267 0)
(0.980545 -0.0172881 0)
(0.977316 -0.0149956 0)
(1.00116 -0.00646892 0)
(0.992374 0.00470255 0)
(1.0002 0.00571471 0)
(1.00795 0.00306464 0)
(1.00915 -0.0095133 0)
(0.990762 -0.0197934 0)
(0.985699 0.000469969 0)
(0.984655 -0.00339203 0)
(0.993487 0.0252794 0)
(1.00829 0.00499187 0)
(1.00843 0.00955039 0)
(1.01307 0.000608889 0)
(1.01429 -0.0115264 0)
(1.00665 -0.0113873 0)
(1.00515 -0.0218257 0)
(0.998045 -0.019728 0)
(0.993144 -0.0208757 0)
(0.987232 -0.0226845 0)
(0.981268 -0.0168273 0)
(0.977912 -0.0140637 0)
(1.00111 -0.00629011 0)
(0.9926 0.00453087 0)
(1.00002 0.00558408 0)
(1.00759 0.00280533 0)
(1.0087 -0.00909124 0)
(0.991195 -0.0192158 0)
(0.985909 0.000447371 0)
(0.985082 -0.00319511 0)
(0.992931 0.023928 0)
(1.00741 0.00530712 0)
(1.00796 0.00855945 0)
(1.01214 0.0010123 0)
(1.01376 -0.0115899 0)
(1.0062 -0.0110711 0)
(1.00475 -0.0209102 0)
(0.998149 -0.0196348 0)
(0.993053 -0.0197674 0)
(0.987556 -0.0219689 0)
(0.98201 -0.0164909 0)
(0.978526 -0.01316 0)
(1.00103 -0.00610348 0)
(0.992847 0.00434482 0)
(0.999923 0.00546753 0)
(1.00727 0.0025336 0)
(1.00824 -0.00866221 0)
(0.991532 -0.018627 0)
(0.986185 0.000415085 0)
(0.985634 -0.00296537 0)
(0.992755 0.0225484 0)
(1.00676 0.00561676 0)
(1.00763 0.00757479 0)
(1.01132 0.00138332 0)
(1.01321 -0.0115799 0)
(1.00577 -0.0108386 0)
(1.00432 -0.019911 0)
(0.998258 -0.0195355 0)
(0.992983 -0.0187388 0)
(0.987838 -0.0211075 0)
(0.982767 -0.01624 0)
(0.979169 -0.0123372 0)
(1.00096 -0.00590952 0)
(0.993088 0.00414423 0)
(0.999875 0.00536335 0)
(1.00696 0.0022556 0)
(1.00779 -0.00822683 0)
(0.991824 -0.0180265 0)
(0.986506 0.000364866 0)
(0.986258 -0.00270518 0)
(0.992813 0.0211461 0)
(1.00624 0.00591993 0)
(1.00739 0.00661099 0)
(1.01056 0.00170964 0)
(1.01265 -0.0114714 0)
(1.00539 -0.0107045 0)
(1.00386 -0.0188323 0)
(0.99837 -0.019396 0)
(0.992945 -0.0178309 0)
(0.988081 -0.0201118 0)
(0.983525 -0.016037 0)
(0.979856 -0.0116513 0)
(1.00091 -0.00570744 0)
(0.993303 0.00392784 0)
(0.999858 0.00527146 0)
(1.00665 0.00197138 0)
(1.00736 -0.00779042 0)
(0.992106 -0.017408 0)
(0.986856 0.000294836 0)
(0.986911 -0.00241644 0)
(0.992996 0.0197247 0)
(1.00578 0.00621245 0)
(1.00718 0.00567797 0)
(1.00984 0.0019424 0)
(1.01206 -0.0112548 0)
(1.00505 -0.0106562 0)
(1.00339 -0.017718 0)
(0.99848 -0.0191864 0)
(0.992951 -0.0170565 0)
(0.988291 -0.0190089 0)
(0.984264 -0.0158212 0)
(0.980596 -0.01111 0)
(1.00089 -0.0054978 0)
(0.993483 0.00369711 0)
(0.999853 0.00518964 0)
(1.00634 0.00168108 0)
(1.00696 -0.00735251 0)
(0.9924 -0.016774 0)
(0.987229 0.000200202 0)
(0.98756 -0.002108 0)
(0.993238 0.0182955 0)
(1.00533 0.00648039 0)
(1.00699 0.00479627 0)
(1.00914 0.00209563 0)
(1.01145 -0.0109337 0)
(1.00474 -0.0106671 0)
(1.00291 -0.0166028 0)
(0.998585 -0.0188762 0)
(0.993014 -0.0164168 0)
(0.98848 -0.0178675 0)
(0.984967 -0.0155191 0)
(0.981392 -0.0107136 0)
(1.00091 -0.00528053 0)
(0.993631 0.00345224 0)
(0.999845 0.00511784 0)
(1.00603 0.00139009 0)
(1.00658 -0.00691974 0)
(0.99271 -0.0161194 0)
(0.987623 7.78321e-05 0)
(0.988191 -0.00178575 0)
(0.993506 0.0168666 0)
(1.00488 0.00671949 0)
(1.00681 0.00398825 0)
(1.00846 0.00215545 0)
(1.01082 -0.0104988 0)
(1.00449 -0.0107205 0)
(1.00245 -0.0155225 0)
(0.998678 -0.0184278 0)
(0.99314 -0.0159045 0)
(0.988664 -0.0167405 0)
(0.985624 -0.0151081 0)
(0.982232 -0.0104619 0)
(1.00094 -0.00505473 0)
(0.993754 0.00319264 0)
(0.999824 0.0050542 0)
(1.00572 0.00110293 0)
(1.00621 -0.00649854 0)
(0.993031 -0.0154367 0)
(0.988038 -6.85006e-05 0)
(0.988798 -0.00144822 0)
(0.993789 0.0154471 0)
(1.00441 0.00691918 0)
(1.00664 0.0032613 0)
(1.00781 0.00210519 0)
(1.01018 -0.00996749 0)
(1.00428 -0.0107851 0)
(1.00203 -0.014509 0)
(0.998751 -0.0178424 0)
(0.993331 -0.0154929 0)
(0.988859 -0.0156542 0)
(0.986225 -0.0145791 0)
(0.983106 -0.0103142 0)
(1.00098 -0.00482218 0)
(0.99387 0.00292449 0)
(0.999787 0.00499053 0)
(1.00543 0.000816603 0)
(1.00584 -0.00609247 0)
(0.993351 -0.0147223 0)
(0.988477 -0.000235661 0)
(0.989383 -0.00110908 0)
(0.994088 0.0140589 0)
(1.00393 0.00705329 0)
(1.00646 0.00262798 0)
(1.00719 0.0019621 0)
(1.00953 -0.00936306 0)
(1.00411 -0.0108345 0)
(1.00164 -0.0135775 0)
(0.998796 -0.0171363 0)
(0.993581 -0.0151385 0)
(0.989085 -0.0146601 0)
(0.98677 -0.0139263 0)
(0.983994 -0.0102071 0)
(1.00102 -0.00458235 0)
(0.993994 0.00264622 0)
(0.999735 0.00493081 0)
(1.00514 0.000539226 0)
(1.00547 -0.00570948 0)
(0.993659 -0.0139785 0)
(0.98894 -0.000421306 0)
(0.989949 -0.000778861 0)
(0.994406 0.0127129 0)
(1.00345 0.00711265 0)
(1.00627 0.00209613 0)
(1.00662 0.00173637 0)
(1.00887 -0.00870295 0)
(1.00396 -0.0108472 0)
(1.00131 -0.0127457 0)
(0.998808 -0.0163195 0)
(0.993879 -0.0147929 0)
(0.989354 -0.0137775 0)
(0.987267 -0.013194 0)
(0.984875 -0.0100956 0)
(1.00105 -0.00433589 0)
(0.994139 0.00235927 0)
(0.999673 0.0048725 0)
(1.00487 0.000284633 0)
(1.00511 -0.00535328 0)
(0.993948 -0.0132079 0)
(0.989426 -0.000628559 0)
(0.990499 -0.000457311 0)
(0.99474 0.0114207 0)
(1.003 0.00709548 0)
(1.00607 0.00166473 0)
(1.00608 0.00144081 0)
(1.00819 -0.00801912 0)
(1.00381 -0.0107889 0)
(1.00103 -0.01202 0)
(0.998785 -0.0154237 0)
(0.994208 -0.0144209 0)
(0.989675 -0.0130148 0)
(0.987727 -0.0124315 0)
(0.985731 -0.00993004 0)
(1.00107 -0.00408423 0)
(0.994313 0.00207041 0)
(0.999608 0.00480345 0)
(1.00461 4.5057e-05 0)
(1.00474 -0.00502735 0)
(0.994214 -0.0124117 0)
(0.989932 -0.000850042 0)
(0.991036 -0.0001494 0)
(0.995086 0.010201 0)
(1.00256 0.00698496 0)
(1.00583 0.00132791 0)
(1.00558 0.00109667 0)
(1.0075 -0.00733886 0)
(1.00366 -0.0106386 0)
(1.00081 -0.0113973 0)
(0.998733 -0.0144897 0)
(0.994549 -0.0139843 0)
(0.990047 -0.0123768 0)
(0.988169 -0.0116573 0)
(0.986547 -0.00967645 0)
(1.00107 -0.00382929 0)
(0.994516 0.00178051 0)
(0.999545 0.00472503 0)
(1.00436 -0.00017337 0)
(1.00439 -0.00473202 0)
(0.99446 -0.0115963 0)
(0.990453 -0.00107628 0)
(0.99156 0.000128197 0)
(0.995435 0.00906051 0)
(1.00214 0.00678165 0)
(1.00556 0.00107781 0)
(1.00511 0.000719544 0)
(1.00681 -0.00668354 0)
(1.00348 -0.0103859 0)
(1.00064 -0.0108699 0)
(0.998662 -0.0135471 0)
(0.994881 -0.0134715 0)
(0.990468 -0.0118268 0)
(0.988611 -0.0109075 0)
(0.987303 -0.00933477 0)
(1.00106 -0.00357136 0)
(0.994746 0.00149021 0)
(0.999488 0.0046362 0)
(1.0041 -0.000357602 0)
(1.00405 -0.00446697 0)
(0.994689 -0.0107699 0)
(0.990984 -0.00129369 0)
(0.99207 0.000359725 0)
(0.99578 0.00800309 0)
(1.00175 0.0065099 0)
(1.00526 0.000892765 0)
(1.00468 0.000330337 0)
(1.00612 -0.00607319 0)
(1.00328 -0.0100358 0)
(1.00052 -0.0104086 0)
(0.998584 -0.0126278 0)
(0.995194 -0.0128875 0)
(0.990929 -0.0113322 0)
(0.989065 -0.010225 0)
(0.987998 -0.00891236 0)
(1.00103 -0.00331148 0)
(0.994995 0.00120321 0)
(0.999438 0.00453105 0)
(1.00385 -0.000506771 0)
(1.00373 -0.0042358 0)
(0.994904 -0.00994041 0)
(0.991521 -0.00149607 0)
(0.992567 0.000544529 0)
(0.99612 0.00703739 0)
(1.0014 0.00617066 0)
(1.00493 0.000775101 0)
(1.00427 -4.4129e-05 0)
(1.00545 -0.00552041 0)
(1.00304 -0.00959854 0)
(1.00043 -0.0099824 0)
(0.998512 -0.0117647 0)
(0.995477 -0.0122428 0)
(0.991413 -0.0108552 0)
(0.989542 -0.00962305 0)
(0.988638 -0.00843301 0)
(1.00101 -0.0030535 0)
(0.995259 0.00092528 0)
(0.999397 0.00441026 0)
(1.00359 -0.000622004 0)
(1.00343 -0.00403628 0)
(0.995109 -0.00912071 0)
(0.992058 -0.00167604 0)
(0.993052 0.000677726 0)
(0.996449 0.00616931 0)
(1.00107 0.00576591 0)
(1.00458 0.0007072 0)
(1.00389 -0.000394456 0)
(1.0048 -0.00503124 0)
(1.00278 -0.00908954 0)
(1.00038 -0.00957248 0)
(0.998455 -0.010966 0)
(0.995734 -0.0115528 0)
(0.991907 -0.0103647 0)
(0.990045 -0.00909807 0)
(0.989234 -0.00793919 0)
(1.00097 -0.00279799 0)
(0.995531 0.000656754 0)
(0.999365 0.00427593 0)
(1.00334 -0.000704867 0)
(1.00316 -0.00386535 0)
(0.995305 -0.00831609 0)
(0.992591 -0.00182004 0)
(0.993526 0.000750208 0)
(0.996767 0.00539911 0)
(1.00078 0.00531735 0)
(1.00422 0.000648155 0)
(1.00354 -0.000710829 0)
(1.0042 -0.00461062 0)
(1.0025 -0.008529 0)
(1.00034 -0.0091623 0)
(0.998423 -0.0102245 0)
(0.995968 -0.0108413 0)
(0.992393 -0.00985583 0)
(0.99057 -0.00862681 0)
(0.989807 -0.00747004 0)
(1.00094 -0.00254588 0)
(0.995809 0.000400956 0)
(0.99934 0.0041219 0)
(1.00308 -0.000752306 0)
(1.00292 -0.00372184 0)
(0.995495 -0.00753001 0)
(0.993112 -0.00192822 0)
(0.993989 0.000765619 0)
(0.997073 0.00471155 0)
(1.00053 0.00483444 0)
(1.00385 0.000600918 0)
(1.00321 -0.00098072 0)
(1.00364 -0.00425786 0)
(1.00221 -0.00794753 0)
(1.00032 -0.00873367 0)
(0.99842 -0.00954044 0)
(0.996187 -0.0101388 0)
(0.992867 -0.00932708 0)
(0.991107 -0.00818037 0)
(0.990371 -0.00705209 0)
(1.0009 -0.0022996 0)
(0.996089 0.00016046 0)
(0.999326 0.00395047 0)
(1.00282 -0.000765602 0)
(1.0027 -0.00359773 0)
(0.995681 -0.00679179 0)
(0.993618 -0.00199387 0)
(0.99444 0.00073205 0)
(0.997366 0.004092 0)
(1.00031 0.00434581 0)
(1.00349 0.00056602 0)
(1.00289 -0.00119803 0)
(1.00313 -0.00396132 0)
(1.00191 -0.00736253 0)
(1.00031 -0.00828896 0)
(0.998444 -0.00890944 0)
(0.996397 -0.00944838 0)
(0.993324 -0.00877788 0)
(0.991643 -0.00772931 0)
(0.990935 -0.00668106 0)
(1.00086 -0.00206185 0)
(0.99637 -5.85402e-05 0)
(0.999322 0.00375992 0)
(1.00256 -0.000746822 0)
(1.0025 -0.00349346 0)
(0.995865 -0.00609395 0)
(0.994105 -0.00201132 0)
(0.994879 0.000654058 0)
(0.997648 0.00352768 0)
(1.00012 0.00386813 0)
(1.00313 0.000521376 0)
(1.0026 -0.0013646 0)
(1.00268 -0.00371406 0)
(1.00161 -0.00677984 0)
(1.00029 -0.00783257 0)
(0.998498 -0.00832158 0)
(0.996608 -0.00876848 0)
(0.993768 -0.00822406 0)
(0.992169 -0.00727145 0)
(0.991496 -0.00633174 0)
(1.00083 -0.00183321 0)
(0.996649 -0.000254805 0)
(0.999329 0.00354482 0)
(1.0023 -0.000698083 0)
(1.00233 -0.00340025 0)
(0.996051 -0.00544409 0)
(0.994568 -0.00197872 0)
(0.995303 0.000543498 0)
(0.997921 0.00302333 0)
(0.999969 0.00340114 0)
(1.00278 0.000473724 0)
(1.00233 -0.00148161 0)
(1.00227 -0.00350306 0)
(1.00132 -0.00621999 0)
(1.00027 -0.00735691 0)
(0.998579 -0.00777352 0)
(0.996821 -0.00812148 0)
(0.994196 -0.0076809 0)
(0.992682 -0.00681864 0)
(0.992048 -0.00598445 0)
(1.00079 -0.00161776 0)
(0.996925 -0.000422896 0)
(0.999349 0.0033014 0)
(1.00204 -0.000623165 0)
(1.00218 -0.00330354 0)
(0.996239 -0.00485633 0)
(0.995007 -0.0019024 0)
(0.995712 0.000414436 0)
(0.998185 0.00256322 0)
(0.999849 0.00294659 0)
(1.00245 0.000419946 0)
(1.00207 -0.00155277 0)
(1.00192 -0.0033093 0)
(1.00105 -0.00568811 0)
(1.00025 -0.00687142 0)
(0.998679 -0.00726462 0)
(0.997042 -0.00751876 0)
(0.994613 -0.00713796 0)
(0.993182 -0.00636729 0)
(0.992582 -0.00562628 0)
(1.00075 -0.00141637 0)
(0.997193 -0.000558556 0)
(0.999383 0.00302582 0)
(1.00178 -0.00052148 0)
(1.00205 -0.00320527 0)
(0.996434 -0.0043356 0)
(0.995421 -0.00179149 0)
(0.996101 0.000276284 0)
(0.99844 0.0021342 0)
(0.999761 0.00250644 0)
(1.00214 0.000347146 0)
(1.00183 -0.00157524 0)
(1.00162 -0.00311938 0)
(1.00081 -0.00518601 0)
(1.00022 -0.00638992 0)
(0.998794 -0.00678166 0)
(0.997277 -0.00695468 0)
(0.995022 -0.00660692 0)
(0.993668 -0.00592817 0)
(0.993092 -0.00525732 0)
(1.00071 -0.00123002 0)
(0.997452 -0.000661684 0)
(0.99943 0.00272838 0)
(1.00153 -0.000405173 0)
(1.00193 -0.0030911 0)
(0.996634 -0.00389113 0)
(0.99581 -0.00165917 0)
(0.996471 0.000144029 0)
(0.998688 0.00174245 0)
(0.999704 0.00209698 0)
(1.00186 0.00027043 0)
(1.0016 -0.00156208 0)
(1.00137 -0.00292885 0)
(1.00058 -0.00471446 0)
(1.00018 -0.0059079 0)
(0.998921 -0.00632162 0)
(0.997523 -0.00644328 0)
(0.995425 -0.00609903 0)
(0.994143 -0.00550741 0)
(0.993586 -0.00489514 0)
(1.00067 -0.00106132 0)
(0.997698 -0.000725192 0)
(0.999489 0.00241339 0)
(1.00129 -0.000286502 0)
(1.00181 -0.00294887 0)
(0.99684 -0.0035108 0)
(0.996176 -0.00151023 0)
(0.996817 3.53392e-05 0)
(0.998927 0.00138976 0)
(0.999676 0.00172257 0)
(1.00161 0.000189235 0)
(1.0014 -0.0015344 0)
(1.00115 -0.00274939 0)
(1.00039 -0.00426995 0)
(1.00014 -0.00542709 0)
(0.999049 -0.00587915 0)
(0.997785 -0.00598306 0)
(0.995828 -0.00562312 0)
(0.994605 -0.00509394 0)
(0.994067 -0.00455749 0)
(1.00064 -0.00091105 0)
(0.997928 -0.000751962 0)
(0.999559 0.00209116 0)
(1.00106 -0.000183954 0)
(1.0017 -0.0027749 0)
(0.99705 -0.00317925 0)
(0.996523 -0.00135733 0)
(0.997139 -5.00715e-05 0)
(0.999157 0.00107962 0)
(0.999675 0.00139302 0)
(1.0014 0.000117251 0)
(1.00122 -0.001489 0)
(1.00098 -0.00258487 0)
(1.00022 -0.00385545 0)
(1.00009 -0.00495359 0)
(0.999175 -0.00544433 0)
(0.998056 -0.00555486 0)
(0.996239 -0.0052043 0)
(0.995055 -0.00469265 0)
(0.994534 -0.00423891 0)
(1.0006 -0.000777171 0)
(0.998139 -0.000753021 0)
(0.999635 0.00177909 0)
(1.00085 -0.000112821 0)
(1.0016 -0.00257201 0)
(0.997261 -0.00287848 0)
(0.99685 -0.00122064 0)
(0.997436 -0.00011712 0)
(0.999376 0.00081851 0)
(0.9997 0.00110411 0)
(1.00121 4.61382e-05 0)
(1.00106 -0.00143878 0)
(1.00084 -0.00243625 0)
(1.00009 -0.00349107 0)
(1.00004 -0.00449619 0)
(0.999294 -0.00501019 0)
(0.998328 -0.00515345 0)
(0.996659 -0.00483756 0)
(0.995506 -0.00431908 0)
(0.994982 -0.0039128 0)
(1.00057 -0.000658178 0)
(0.998333 -0.000734316 0)
(0.999713 0.00148629 0)
(1.00066 -7.76683e-05 0)
(1.0015 -0.00234326 0)
(0.997469 -0.00259857 0)
(0.997158 -0.00109538 0)
(0.997712 -0.00016323 0)
(0.999583 0.000607799 0)
(0.999742 0.000851176 0)
(1.00105 -3.00805e-05 0)
(1.00092 -0.00139535 0)
(1.00074 -0.00231257 0)
(0.999994 -0.00317999 0)
(1 -0.00407468 0)
(0.999404 -0.0045916 0)
(0.998592 -0.00476818 0)
(0.997089 -0.00450308 0)
(0.995971 -0.00399477 0)
(0.995411 -0.00357974 0)
(1.00053 -0.000554349 0)
(0.998507 -0.000703171 0)
(0.999791 0.00122654 0)
(1.00048 -7.93185e-05 0)
(1.00141 -0.0021044 0)
(0.997671 -0.00231862 0)
(0.997449 -0.00097525 0)
(0.997966 -0.000195824 0)
(0.999777 0.000427267 0)
(0.999799 0.000639103 0)
(1.00092 -9.79895e-05 0)
(1.00079 -0.0013422 0)
(1.00067 -0.00221268 0)
(0.999938 -0.00291293 0)
(0.99998 -0.00368608 0)
(0.999511 -0.00419166 0)
(0.998846 -0.00438727 0)
(0.997513 -0.00418379 0)
(0.996455 -0.0037328 0)
(0.995833 -0.00327146 0)
(1.0005 -0.000461814 0)
(0.998663 -0.000668357 0)
(0.999865 0.00100102 0)
(1.00033 -0.000100288 0)
(1.00133 -0.0018826 0)
(0.997865 -0.00203784 0)
(0.997719 -0.00085446 0)
(0.998198 -0.000220839 0)
(0.999959 0.00027191 0)
(0.999867 0.000459936 0)
(1.0008 -0.000152602 0)
(1.00067 -0.00127948 0)
(1.00062 -0.00212261 0)
(0.999923 -0.00269008 0)
(0.999977 -0.00333144 0)
(0.999616 -0.00380784 0)
(0.999088 -0.00402361 0)
(0.997916 -0.0038654 0)
(0.99695 -0.00350532 0)
(0.99627 -0.00300666 0)
(1.00047 -0.000379621 0)
(0.998803 -0.000632389 0)
(0.999934 0.000804291 0)
(1.00019 -0.00012773 0)
(1.00126 -0.00168797 0)
(0.998053 -0.00176633 0)
(0.997966 -0.000727154 0)
(0.998407 -0.000234327 0)
(1.00013 0.000142957 0)
(0.999948 0.000307249 0)
(1.00072 -0.000179 0)
(1.00056 -0.00120286 0)
(1.00058 -0.00201805 0)
(0.999944 -0.00250512 0)
(0.999998 -0.0030185 0)
(0.99972 -0.00344882 0)
(0.999321 -0.00368553 0)
(0.998295 -0.00355314 0)
(0.997437 -0.00328322 0)
(0.996732 -0.0028078 0)
(1.00043 -0.000306336 0)
(0.998928 -0.000599253 0)
(0.999998 0.000638107 0)
(1.00007 -0.000155478 0)
(1.00121 -0.00152559 0)
(0.998239 -0.00151331 0)
(0.998192 -0.000582741 0)
(0.998593 -0.000230744 0)
(1.00029 2.79502e-05 0)
(1.00004 0.000172103 0)
(1.00065 -0.000194614 0)
(1.00046 -0.0011015 0)
(1.00055 -0.00189537 0)
(0.999989 -0.00234274 0)
(1.00005 -0.00275254 0)
(0.999824 -0.00310982 0)
(0.999544 -0.00336226 0)
(0.998654 -0.00325378 0)
(0.997895 -0.00304861 0)
(0.997209 -0.00265336 0)
(1.0004 -0.000240446 0)
(0.999038 -0.000571848 0)
(1.00006 0.000498784 0)
(0.999964 -0.000174261 0)
(1.00117 -0.00139051 0)
(0.998426 -0.00129619 0)
(0.998398 -0.000419317 0)
(0.99875 -0.000198152 0)
(1.00043 -7.54985e-05 0)
(1.00015 4.95755e-05 0)
(1.00061 -0.000216408 0)
(1.00037 -0.000979413 0)
(1.00052 -0.00175295 0)
(1.00005 -0.00218747 0)
(1.00012 -0.00253255 0)
(0.999939 -0.00280695 0)
(0.999756 -0.00305552 0)
(0.998996 -0.00297925 0)
(0.998319 -0.00280892 0)
(0.997676 -0.00249887 0)
(1.00038 -0.000179532 0)
(0.999136 -0.000554249 0)
(1.00012 0.000379814 0)
(0.999869 -0.000176825 0)
(1.00114 -0.00127717 0)
(0.998621 -0.00112073 0)
(0.998593 -0.00024819 0)
(0.998878 -0.000128105 0)
(1.00055 -0.000155326 0)
(1.00026 -7.35134e-05 0)
(1.0006 -0.000243082 0)
(1.00029 -0.000853461 0)
(1.00048 -0.00158165 0)
(1.00011 -0.00202263 0)
(1.00022 -0.00234395 0)
(1.00007 -0.00254994 0)
(0.999958 -0.00277249 0)
(0.999322 -0.00273285 0)
(0.998718 -0.00258676 0)
(0.998113 -0.0023283 0)
(1.00035 -0.000123421 0)
(0.999223 -0.000544377 0)
(1.00017 0.000276698 0)
(0.999785 -0.000163961 0)
(1.00113 -0.00117261 0)
(0.998828 -0.0009821 0)
(0.998785 -8.27555e-05 0)
(0.998976 -1.75167e-05 0)
(1.00065 -0.000201133 0)
(1.00039 -0.000201966 0)
(1.00063 -0.000285708 0)
(1.00024 -0.00074626 0)
(1.00044 -0.00139337 0)
(1.00016 -0.00184082 0)
(1.00033 -0.00216521 0)
(1.00021 -0.00233415 0)
(1.00015 -0.00252101 0)
(0.999631 -0.00250242 0)
(0.999103 -0.00239421 0)
(0.998512 -0.00214417 0)
(1.00033 -7.49935e-05 0)
(0.999301 -0.000538007 0)
(1.00024 0.000182899 0)
(0.999713 -0.000131645 0)
(1.00112 -0.0010636 0)
(0.999046 -0.000881516 0)
(0.998985 6.28163e-05 0)
(0.999051 0.000114904 0)
(1.00071 -0.000196999 0)
(1.00051 -0.000306653 0)
(1.0007 -0.000352864 0)
(1.00023 -0.000660486 0)
(1.00041 -0.00121035 0)
(1.0002 -0.00164407 0)
(1.00043 -0.00198737 0)
(1.00036 -0.00215031 0)
(1.00035 -0.00231127 0)
(0.99992 -0.00228946 0)
(0.999479 -0.00223542 0)
(0.99889 -0.00197999 0)
(1.0003 -2.76484e-05 0)
(0.999371 -0.000536088 0)
(1.0003 9.72768e-05 0)
(0.999657 -6.71438e-05 0)
(1.0011 -0.00093557 0)
(0.999273 -0.000813493 0)
(0.999198 0.000168279 0)
(0.999112 0.000252298 0)
(1.00074 -0.000151367 0)
(1.00061 -0.000372319 0)
(1.00079 -0.000442016 0)
(1.00026 -0.000606277 0)
(1.0004 -0.00104504 0)
(1.00023 -0.00143717 0)
(1.00051 -0.00180145 0)
(1.00052 -0.00197324 0)
(1.00056 -0.00213605 0)
(1.00019 -0.00209543 0)
(0.999836 -0.00209266 0)
(0.999263 -0.00185465 0)
(1.00029 7.01698e-06 0)
(0.999433 -0.000498086 0)
(1.00039 2.19107e-05 0)
(0.99962 3.6393e-06 0)
(1.00109 -0.000786105 0)
(0.999502 -0.000769271 0)
(0.999433 0.000202973 0)
(0.999171 0.000380764 0)
(1.00073 -7.46197e-05 0)
(1.00069 -0.000394435 0)
(1.0009 -0.000515642 0)
(1.00034 -0.000601668 0)
(1.00042 -0.000911006 0)
(1.00026 -0.00123846 0)
(1.00058 -0.001609 0)
(1.00065 -0.00179426 0)
(1.00076 -0.00198357 0)
(1.00045 -0.00193344 0)
(1.00017 -0.00195529 0)
(0.999636 -0.00176365 0)
(1.00027 3.31146e-05 0)
(0.999484 -0.000430912 0)
(1.00047 -3.73192e-05 0)
(0.999604 6.70637e-05 0)
(1.00106 -0.000604886 0)
(0.999716 -0.000727926 0)
(0.999689 0.0001683 0)
(0.999245 0.000474983 0)
(1.00071 2.52269e-05 0)
(1.00074 -0.000377707 0)
(1.00101 -0.000557412 0)
(1.00045 -0.000621924 0)
(1.00048 -0.000827062 0)
(1.00031 -0.00106152 0)
(1.00065 -0.00142016 0)
(1.00076 -0.00161346 0)
(1.00095 -0.00183615 0)
(1.00071 -0.00180505 0)
(1.00047 -0.00182513 0)
(0.999997 -0.00168648 0)
(1.00026 5.66985e-05 0)
(0.999526 -0.000363283 0)
(1.00055 -7.3402e-05 0)
(0.999612 0.000121106 0)
(1.00103 -0.000402887 0)
(0.999901 -0.000658179 0)
(0.999959 9.39649e-05 0)
(0.999345 0.000523257 0)
(1.00067 0.000138704 0)
(1.00077 -0.000315339 0)
(1.00111 -0.000573624 0)
(1.00058 -0.000627859 0)
(1.00058 -0.000790285 0)
(1.00038 -0.000921919 0)
(1.00071 -0.00124457 0)
(1.00086 -0.00143753 0)
(1.00111 -0.00168407 0)
(1.00095 -0.00169417 0)
(1.00076 -0.00171949 0)
(1.00033 -0.00161004 0)
(1.00025 6.90608e-05 0)
(0.999558 -0.000278835 0)
(1.00063 -9.39905e-05 0)
(0.999642 0.000151543 0)
(1.00099 -0.000213379 0)
(1.00005 -0.000542308 0)
(1.00023 7.21906e-06 0)
(0.999482 0.000516801 0)
(1.00064 0.000250468 0)
(1.00076 -0.000211982 0)
(1.00119 -0.000557817 0)
(1.00072 -0.000625327 0)
(1.00071 -0.000770437 0)
(1.00048 -0.000833633 0)
(1.00077 -0.00109537 0)
(1.00094 -0.00127372 0)
(1.00124 -0.00153068 0)