/*--------------------------------*- C++ -*----------------------------------*\
| =========                 |                                                 |
| \\      /  F ield         | OpenFOAM: The Open Source CFD Toolbox           |
|  \\    /   O peration     | Version:  2506                                  |
|   \\  /    A nd           | Website:  www.openfoam.com                      |
|    \\/     M anipulation  |                                                 |
\*---------------------------------------------------------------------------*/
FoamFile
{
    version     2.0;
    format      ascii;
    arch        "LSB;label=32;scalar=64";
    class       volVectorField;
    location    "1.05";
    object      U;
}
// * * * * * * * * * * * * * * * * * * * * * * * * * * * * * * * * * * * * * //

dimensions      [0 1 -1 0 0 0 0];

internalField   nonuniform List<vector> 
9600
(
(0.870752 0.000696783 0)
(1.12313 -0.00400759 0)
(0.84835 0.00177256 0)
(1.17144 0.00397818 0)
(0.846789 -0.00254171 0)
(1.11542 -0.00318374 0)
(0.917162 -0.00278054 0)
(1.1102 -0.00628549 0)
(0.87289 0.00794467 0)
(1.13544 -0.00138215 0)
(0.837146 0.00500845 0)
(1.13619 0.00740141 0)
(0.85386 -0.000922682 0)
(1.10952 -0.00139051 0)
(0.873509 -0.0053998 0)
(1.11597 -0.00135059 0)
(0.882559 -0.00455845 0)
(1.12687 -3.19728e-05 0)
(0.882707 -0.0019711 0)
(1.14042 4.50224e-05 0)
(0.881007 0.000666779 0)
(1.11053 -0.00368433 0)
(0.860845 0.00121052 0)
(1.15586 0.00418063 0)
(0.867175 -0.00216892 0)
(1.09931 -0.00368846 0)
(0.931151 -0.00298717 0)
(1.09549 -0.00550632 0)
(0.890146 0.00742032 0)
(1.11206 -0.000508544 0)
(0.865632 0.00477382 0)
(1.10075 0.00739896 0)
(0.901224 -0.000580675 0)
(1.06604 -0.00159883 0)
(0.92947 -0.00564308 0)
(1.05888 -0.00156047 0)
(0.956914 -0.00473462 0)
(1.04684 -0.000222066 0)
(0.985283 -0.00152245 0)
(1.02418 0.000199783 0)
(0.900114 0.000673186 0)
(1.08829 -0.00342402 0)
(0.88564 0.000688359 0)
(1.12744 0.00430948 0)
(0.899618 -0.00184964 0)
(1.0724 -0.00416356 0)
(0.953434 -0.00305814 0)
(1.07011 -0.00490829 0)
(0.921803 0.00700195 0)
(1.07678 -3.81473e-05 0)
(0.91214 0.00471885 0)
(1.05381 0.00697851 0)
(0.953667 -0.000132386 0)
(1.02404 -0.00211924 0)
(0.974231 -0.00546563 0)
(1.01812 -0.00228185 0)
(0.994336 -0.00425855 0)
(1.01329 -0.00139312 0)
(1.00802 -0.000722351 0)
(1.00911 -3.24177e-05 0)
(0.924494 0.000717901 0)
(1.06095 -0.00325992 0)
(0.91737 0.000302784 0)
(1.0928 0.00429896 0)
(0.934263 -0.00150363 0)
(1.04303 -0.00453513 0)
(0.97536 -0.00310353 0)
(1.04238 -0.00454002 0)
(0.955199 0.00684307 0)
(1.04433 0.000135597 0)
(0.954632 0.00496124 0)
(1.02138 0.00641671 0)
(0.986168 0.000251509 0)
(1.00542 -0.00242425 0)
(0.992505 -0.00536325 0)
(1.00549 -0.00271364 0)
(1.00295 -0.00417758 0)
(1.00823 -0.00175718 0)
(1.00881 -0.000443012 0)
(1.00996 0.000434667 0)
(0.949491 0.000797147 0)
(1.03428 -0.00317501 0)
(0.9488 9.06204e-06 0)
(1.05949 0.00423147 0)
(0.962747 -0.00114502 0)
(1.01913 -0.00482819 0)
(0.990291 -0.00314633 0)
(1.01987 -0.0043241 0)
(0.980222 0.00678141 0)
(1.02301 0.000180631 0)
(0.982286 0.00522774 0)
(1.00832 0.00601519 0)
(1.00067 0.000477343 0)
(1.00202 -0.0025207 0)
(0.998316 -0.00529131 0)
(1.00323 -0.00304234 0)
(1.0048 -0.0041032 0)
(1.0073 -0.0020857 0)
(1.00901 -0.000203846 0)
(1.00906 0.000713489 0)
(0.970936 0.000900833 0)
(1.01322 -0.00315914 0)
(0.974174 -0.000213418 0)
(1.03316 0.00416787 0)
(0.981524 -0.000840269 0)
(1.0043 -0.00502556 0)
(0.997086 -0.00317104 0)
(1.00506 -0.00423723 0)
(0.994573 0.00669846 0)
(1.0122 0.000183117 0)
(0.996628 0.0053641 0)
(1.00611 0.00578401 0)
(1.00625 0.000611516 0)
(1.00266 -0.00251934 0)
(1.00053 -0.00518691 0)
(1.00244 -0.00332092 0)
(1.0048 -0.00404577 0)
(1.00585 -0.00235989 0)
(1.00795 -4.79286e-05 0)
(1.00734 0.00103833 0)
(0.986471 0.00101015 0)
(1.00002 -0.00318883 0)
(0.991012 -0.000375652 0)
(1.01574 0.00413928 0)
(0.991741 -0.00061642 0)
(0.997513 -0.00512494 0)
(0.998565 -0.00316899 0)
(0.996491 -0.00425408 0)
(1.00089 0.00655941 0)
(1.00741 0.000171911 0)
(1.00286 0.00538264 0)
(1.00684 0.00565066 0)
(1.00824 0.000742929 0)
(1.00325 -0.00247692 0)
(1.0013 -0.00504996 0)
(1.00162 -0.00353492 0)
(1.0035 -0.0039928 0)
(1.00375 -0.00254507 0)
(1.00537 5.32195e-05 0)
(1.0047 0.00141619 0)
(0.995904 0.00110727 0)
(0.993999 -0.00323612 0)
(0.99988 -0.000490369 0)
(1.00594 0.0041476 0)
(0.996584 -0.000468918 0)
(0.99567 -0.00515239 0)
(0.998049 -0.00313051 0)
(0.991933 -0.00433279 0)
(1.0025 0.00636918 0)
(1.00493 0.000150751 0)
(1.00476 0.00533133 0)
(1.00718 0.00556658 0)
(1.00858 0.0008894 0)
(1.00333 -0.00241395 0)
(1.00123 -0.0048858 0)
(1.00072 -0.00367496 0)
(1.00164 -0.00393072 0)
(1.00127 -0.00263224 0)
(1.00208 0.000121542 0)
(1.00132 0.00182263 0)
(1.00056 0.00118218 0)
(0.992808 -0.00328079 0)
(1.00299 -0.000566293 0)
(1.00121 0.004172 0)
(0.998871 -0.000379895 0)
(0.996041 -0.00513593 0)
(0.997437 -0.00305216 0)
(0.989899 -0.00442932 0)
(1.0017 0.00615156 0)
(1.0031 0.000123141 0)
(1.00432 0.00523985 0)
(1.00654 0.0055025 0)
(1.00803 0.00102966 0)
(1.00315 -0.0023333 0)
(1.00082 -0.00470407 0)
(0.999823 -0.00374748 0)
(0.999798 -0.00385456 0)
(0.998819 -0.0026148 0)
(0.998815 0.000182052 0)
(0.997852 0.00223981 0)
(1.00223 0.00123318 0)
(0.994015 -0.00331183 0)
(1.00278 -0.000608751 0)
(0.999244 0.00418618 0)
(1.00018 -0.000329331 0)
(0.997029 -0.00509328 0)
(0.997248 -0.00294228 0)
(0.989492 -0.00451045 0)
(0.999821 0.00593118 0)
(1.00152 9.43906e-05 0)
(1.00264 0.00512595 0)
(1.00521 0.00543493 0)
(1.00707 0.00114316 0)
(1.00283 -0.00223588 0)
(1.00034 -0.00452325 0)
(0.999016 -0.00375217 0)
(0.998209 -0.00375875 0)
(0.996711 -0.00250014 0)
(0.996007 0.000249295 0)
(0.994813 0.00265234 0)
(1.00242 0.00126335 0)
(0.995942 -0.00332404 0)
(1.00117 -0.000623371 0)
(0.998597 0.00417149 0)
(1.00109 -0.000300983 0)
(0.997935 -0.00503395 0)
(0.997366 -0.00281624 0)
(0.990024 -0.00455585 0)
(0.997682 0.00572425 0)
(1.00021 7.01914e-05 0)
(1.00055 0.0050003 0)
(1.00362 0.00534932 0)
(1.00604 0.001219 0)
(1.00244 -0.0021266 0)
(0.999892 -0.00435669 0)
(0.998335 -0.00368439 0)
(0.996948 -0.00364813 0)
(0.995061 -0.00231127 0)
(0.993855 0.000337081 0)
(0.992484 0.00304505 0)
(1.00208 0.00127737 0)
(0.997736 -0.00331678 0)
(0.999318 -0.000616585 0)
(0.998487 0.00412131 0)
(1.00176 -0.000283733 0)
(0.998546 -0.00496289 0)
(0.997579 -0.00268758 0)
(0.99094 -0.00455886 0)
(0.995789 0.00553741 0)
(0.999228 5.4861e-05 0)
(0.998637 0.00486627 0)
(1.0021 0.00524515 0)
(1.00514 0.00125042 0)
(1.002 -0.00200723 0)
(0.999493 -0.00420313 0)
(0.99778 -0.00355648 0)
(0.99601 -0.00352876 0)
(0.993872 -0.00207103 0)
(0.992372 0.000460412 0)
(0.990917 0.00339204 0)
(1.00165 0.0012799 0)
(0.999091 -0.00329288 0)
(0.997802 -0.000594455 0)
(0.998545 0.00403885 0)
(1.0022 -0.00027011 0)
(0.998873 -0.00488259 0)
(0.997761 -0.00256439 0)
(0.99187 -0.0045228 0)
(0.994391 0.00536945 0)
(0.99854 5.10822e-05 0)
(0.9972 0.00472391 0)
(1.00085 0.00512938 0)
(1.00442 0.00123486 0)
(1.00157 -0.00186952 0)
(0.999141 -0.00406335 0)
(0.997343 -0.00338634 0)
(0.995352 -0.00339703 0)
(0.993087 -0.00180331 0)
(0.99146 0.00063098 0)
(0.990019 0.00366702 0)
(1.00131 0.00127491 0)
(0.999984 -0.00325673 0)
(0.996787 -0.000561493 0)
(0.998616 0.00393134 0)
(1.00243 -0.000256209 0)
(0.999002 -0.00479446 0)
(0.997878 -0.00245023 0)
(0.992639 -0.00445537 0)
(0.993523 0.0052142 0)
(0.998097 6.02506e-05 0)
(0.996297 0.00457336 0)
(0.999936 0.0050095 0)
(1.00387 0.00117824 0)
(1.00117 -0.00170891 0)
(0.99884 -0.00394098 0)
(0.997017 -0.00318465 0)
(0.994921 -0.00324647 0)
(0.992628 -0.00153703 0)
(0.990982 0.000858221 0)
(0.989627 0.003874 0)
(1.00108 0.00126544 0)
(1.0005 -0.00321288 0)
(0.996225 -0.000520443 0)
(0.998657 0.00380608 0)
(1.00251 -0.000240839 0)
(0.999026 -0.0046996 0)
(0.997943 -0.00234546 0)
(0.993209 -0.00436494 0)
(0.993088 0.00506433 0)
(0.997844 8.295e-05 0)
(0.995837 0.00441149 0)
(0.999326 0.00489621 0)
(1.00345 0.00108829 0)
(1.00084 -0.00152917 0)
(0.998596 -0.00382869 0)
(0.996792 -0.00296716 0)
(0.994663 -0.00306294 0)
(0.992417 -0.00129913 0)
(0.990809 0.00113062 0)
(0.989579 0.00403866 0)
(1.00094 0.00125379 0)
(1.00076 -0.00316503 0)
(0.995986 -0.00047396 0)
(0.99867 0.00366989 0)
(1.00247 -0.000223323 0)
(0.999007 -0.00459912 0)
(0.99798 -0.00224858 0)
(0.993614 -0.00425808 0)
(0.992944 0.00491295 0)
(0.997724 0.000119991 0)
(0.99568 0.00423277 0)
(0.99895 0.00479921 0)
(1.00313 0.000971848 0)
(1.00056 -0.00133171 0)
(0.998413 -0.00371646 0)
(0.996656 -0.00275231 0)
(0.994535 -0.00283237 0)
(0.992383 -0.00109494 0)
(0.990839 0.00141892 0)
(0.989742 0.0041796 0)
(1.00085 0.00124142 0)
(1.00087 -0.0031158 0)
(0.99594 -0.00042399 0)
(0.998671 0.00352753 0)
(1.00237 -0.000203975 0)
(0.998977 -0.00449331 0)
(0.998009 -0.00215919 0)
(0.993907 -0.00413743 0)
(0.992962 0.00475327 0)
(0.997684 0.000173485 0)
(0.995699 0.00403545 0)
(0.998724 0.00471893 0)
(1.00287 0.000834866 0)
(1.00034 -0.00112053 0)
(0.998285 -0.00359685 0)
(0.996596 -0.00255246 0)
(0.9945 -0.00255168 0)
(0.992471 -0.000916792 0)
(0.991002 0.00170136 0)
(0.990024 0.00431677 0)
(1.0008 0.0012291 0)
(1.00091 -0.00306666 0)
(0.995992 -0.000371091 0)
(0.998671 0.0033819 0)
(1.00223 -0.000183485 0)
(0.998945 -0.00438193 0)
(0.998039 -0.00207701 0)
(0.994138 -0.00400437 0)
(0.993055 0.00458092 0)
(0.997685 0.00024405 0)
(0.995809 0.00382074 0)
(0.998581 0.00465239 0)
(1.00265 0.000689278 0)
(1.00015 -0.000910084 0)
(0.9982 -0.00345178 0)
(0.996597 -0.00238647 0)
(0.99453 -0.00222313 0)
(0.992639 -0.000759825 0)
(0.99125 0.00195369 0)
(0.990367 0.00446781 0)
(1.00076 0.0012174 0)
(1.00091 -0.00301862 0)
(0.996087 -0.000315772 0)
(0.998675 0.00323477 0)
(1.00208 -0.000162502 0)
(0.998915 -0.00426486 0)
(0.998072 -0.00200217 0)
(0.994339 -0.00385907 0)
(0.993178 0.00439365 0)
(0.9977 0.000331969 0)
(0.995959 0.00358537 0)
(0.998477 0.00460432 0)
(1.00246 0.000537322 0)
(0.999987 -0.000714959 0)
(0.998141 -0.00326693 0)
(0.996645 -0.00225892 0)
(0.994605 -0.00186104 0)
(0.992854 -0.00060447 0)
(0.991557 0.00215303 0)
(0.990737 0.00462896 0)
(1.00073 0.00120658 0)
(1.0009 -0.00297211 0)
(0.996197 -0.000259434 0)
(0.998681 0.00308767 0)
(1.00194 -0.000141686 0)
(0.998885 -0.00414141 0)
(0.998106 -0.00193587 0)
(0.994529 -0.00370092 0)
(0.993311 0.00418974 0)
(0.997715 0.00043589 0)
(0.996126 0.00333328 0)
(0.998387 0.00456707 0)
(1.00229 0.0003888 0)
(0.99985 -0.000541603 0)
(0.998097 -0.00303644 0)
(0.996728 -0.0021625 0)
(0.99471 -0.00148687 0)
(0.993094 -0.000426379 0)
(0.991904 0.00229365 0)
(0.99112 0.00479259 0)
(1.00069 0.00119649 0)
(1.00088 -0.00292752 0)
(0.996312 -0.000201661 0)
(0.998688 0.00294096 0)
(1.00179 -0.000121064 0)
(0.998857 -0.00401107 0)
(0.998141 -0.0018777 0)
(0.994716 -0.00353009 0)
(0.993446 0.0039707 0)
(0.997727 0.000549731 0)
(0.996299 0.00307541 0)
(0.998301 0.00452487 0)
(1.00212 0.000257942 0)
(0.999732 -0.00040123 0)
(0.998057 -0.00275871 0)
(0.996836 -0.00208837 0)
(0.994841 -0.00111777 0)
(0.993344 -0.000213032 0)
(0.992279 0.00237794 0)
(0.991509 0.00494716 0)
(1.00066 0.00118743 0)
(1.00087 -0.00288582 0)
(0.99643 -0.000142153 0)
(0.998696 0.00279515 0)
(1.00166 -0.000101947 0)
(0.998831 -0.00387145 0)
(0.998176 -0.0018303 0)
(0.994902 -0.00334406 0)
(0.993585 0.00373536 0)
(0.997735 0.000674314 0)
(0.996476 0.00281033 0)
(0.998217 0.00447916 0)
(1.00195 0.000152791 0)
(0.999632 -0.000299007 0)
(0.998018 -0.00244392 0)
(0.996962 -0.00202174 0)
(0.994995 -0.000770686 0)
(0.993594 3.50624e-05 0)
(0.992671 0.00241747 0)
(0.991903 0.00507493 0)
(1.00062 0.00117937 0)
(1.00085 -0.00284598 0)
(0.996549 -8.30775e-05 0)
(0.998704 0.00265284 0)
(1.00152 -8.54083e-05 0)
(0.998808 -0.00372154 0)
(0.998212 -0.00179497 0)
(0.99509 -0.00314402 0)
(0.993728 0.00348958 0)
(0.997741 0.00080649 0)
(0.996654 0.00254515 0)
(0.998138 0.00442211 0)
(1.00178 8.8428e-05 0)
(0.999551 -0.000232656 0)
(0.997978 -0.00209827 0)
(0.997099 -0.0019449 0)
(0.995171 -0.000459586 0)
(0.993838 0.000320305 0)
(0.993073 0.00243145 0)
(0.992307 0.00515813 0)
(1.00059 0.00117181 0)
(1.00084 -0.0028074 0)
(0.99667 -2.46851e-05 0)
(0.998713 0.00251461 0)
(1.00139 -7.36698e-05 0)
(0.998786 -0.00356013 0)
(0.99825 -0.00177103 0)
(0.995278 -0.00293445 0)
(0.993876 0.00323946 0)
(0.997745 0.000935315 0)
(0.996834 0.00229616 0)
(0.998065 0.00433621 0)
(1.00161 5.99482e-05 0)
(0.999487 -0.000200882 0)
(0.997937 -0.00173203 0)
(0.997241 -0.00184428 0)
(0.99537 -0.00018992 0)
(0.994077 0.000638981 0)
(0.993477 0.0024401 0)
(0.992724 0.00518274 0)
(1.00055 0.00116513 0)
(1.00083 -0.00277088 0)
(0.996793 3.22259e-05 0)
(0.998722 0.00238213 0)
(1.00127 -6.90203e-05 0)
(0.998766 -0.00338634 0)
(0.99829 -0.00175935 0)
(0.995467 -0.00271824 0)
(0.99403 0.00298701 0)
(0.997749 0.00105527 0)
(0.997013 0.00206966 0)
(0.998001 0.00422089 0)
(1.00144 6.67591e-05 0)
(0.999441 -0.000191783 0)
(0.997899 -0.00136683 0)
(0.997386 -0.00171232 0)
(0.995594 2.98363e-05 0)
(0.99431 0.000971584 0)
(0.993875 0.00245854 0)
(0.99316 0.00513951 0)
(1.00052 0.00115893 0)
(1.00082 -0.00273529 0)
(0.996918 8.48708e-05 0)
(0.998731 0.00225929 0)
(1.00114 -7.2058e-05 0)
(0.998747 -0.00319935 0)
(0.998334 -0.00175893 0)
(0.995656 -0.00249731 0)
(0.994189 0.00273986 0)
(0.997755 0.00115769 0)
(0.99719 0.00187046 0)
(0.997948 0.00407858 0)
(1.00126 0.000106105 0)
(0.999412 -0.000197058 0)
(0.997865 -0.00100869 0)
(0.997527 -0.00154552 0)
(0.995842 0.000204511 0)
(0.994542 0.00130511 0)
(0.994258 0.00249806 0)
(0.993615 0.00502483 0)
(1.00049 0.00115284 0)
(1.00081 -0.00269986 0)
(0.997046 0.000132588 0)
(0.998741 0.00214674 0)
(1.00102 -8.5023e-05 0)
(0.99873 -0.00299642 0)
(0.998384 -0.00176801 0)
(0.995847 -0.00227586 0)
(0.994354 0.00250446 0)
(0.997762 0.00123206 0)
(0.997364 0.00170185 0)
(0.997904 0.00391382 0)
(1.00109 0.000171475 0)
(0.999401 -0.000206073 0)
(0.997839 -0.000653878 0)
(0.997663 -0.00134269 0)
(0.996113 0.000344808 0)
(0.994775 0.00163074 0)
(0.994618 0.00257601 0)
(0.994089 0.00484821 0)
(1.00046 0.00114681 0)
(1.0008 -0.00266337 0)
(0.997178 0.000172318 0)
(0.998751 0.00204774 0)
(1.00091 -0.000109483 0)
(0.998714 -0.00278005 0)
(0.998438 -0.00178177 0)
(0.996039 -0.00206204 0)
(0.994522 0.00228955 0)
(0.997773 0.00127814 0)
(0.997536 0.00155784 0)
(0.997872 0.00374112 0)
(1.00092 0.000255296 0)
(0.999407 -0.000207149 0)
(0.997824 -0.000309226 0)
(0.997788 -0.00109869 0)
(0.996404 0.000449115 0)
(0.995017 0.00193207 0)
(0.994947 0.00270738 0)
(0.994574 0.0046328 0)
(1.00043 0.00113998 0)
(1.0008 -0.0026244 0)
(0.997315 0.000202029 0)
(0.998762 0.00196598 0)
(1.0008 -0.000146551 0)
(0.998698 -0.002555 0)
(0.998497 -0.00179478 0)
(0.996234 -0.00186396 0)
(0.994693 0.00210504 0)
(0.997788 0.00129458 0)
(0.997705 0.001436 0)
(0.997852 0.00356653 0)
(1.00075 0.000342812 0)
(0.99943 -0.000200923 0)
(0.997825 1.30422e-05 0)
(0.997899 -0.000819139 0)
(0.996711 0.000522647 0)
(0.995276 0.00218287 0)
(0.995242 0.00289311 0)
(0.995054 0.00441601 0)
(1.00039 0.00113218 0)
(1.00079 -0.00258173 0)
(0.997456 0.00021958 0)
(0.998773 0.00190398 0)
(1.00069 -0.000197078 0)
(0.998684 -0.00232307 0)
(0.99856 -0.00180406 0)
(0.996434 -0.00168872 0)
(0.994865 0.00195664 0)
(0.997808 0.00128231 0)
(0.997874 0.00133097 0)
(0.997843 0.00339655 0)
(1.00059 0.000441086 0)
(0.999472 -0.000188098 0)
(0.997843 0.000308972 0)
(0.997993 -0.000511228 0)
(0.997026 0.000580167 0)
(0.99556 0.00236493 0)
(0.995507 0.00311892 0)
(0.99551 0.00424963 0)
(1.00036 0.00112237 0)
(1.00079 -0.00253243 0)
(0.997603 0.000220932 0)
(0.998784 0.0018623 0)
(1.0006 -0.000257177 0)
(0.998671 -0.00208899 0)
(0.998626 -0.00180123 0)
(0.996638 -0.00154368 0)
(0.995039 0.00183875 0)
(0.997831 0.00125488 0)
(0.998044 0.0012324 0)
(0.997847 0.00324461 0)
(1.00043 0.000552832 0)
(0.99953 -0.000162246 0)
(0.997885 0.000576509 0)
(0.998071 -0.000185102 0)
(0.997341 0.000637051 0)
(0.995874 0.00247501 0)
(0.995753 0.00334539 0)
(0.995922 0.00416883 0)
(1.00033 0.00111057 0)
(1.00079 -0.00247629 0)
(0.997755 0.00020601 0)
(0.998797 0.00184105 0)
(1.00051 -0.000325519 0)
(0.998661 -0.00185901 0)
(0.998693 -0.00177586 0)
(0.996849 -0.00143568 0)
(0.995215 0.00175365 0)
(0.997857 0.00121845 0)
(0.998218 0.00113126 0)
(0.997865 0.00311287 0)
(1.00028 0.000679386 0)
(0.999604 -0.000133037 0)
(0.997952 0.000810522 0)
(0.998135 0.000150153 0)
(0.997647 0.000704937 0)
(0.996218 0.00252726 0)
(0.995996 0.00353508 0)
(0.996283 0.0041741 0)
(1.00031 0.00109597 0)
(1.00079 -0.0024108 0)
(0.997914 0.000172756 0)
(0.998811 0.00183719 0)
(1.00042 -0.000395819 0)
(0.998657 -0.00163955 0)
(0.99876 -0.00172437 0)
(0.997067 -0.00136302 0)
(0.995394 0.00168982 0)
(0.997883 0.00118508 0)
(0.998395 0.0010248 0)
(0.9979 0.0029949 0)
(1.00013 0.000828103 0)
(0.999689 -0.000104522 0)
(0.998049 0.00100275 0)
(0.998188 0.000496263 0)
(0.997937 0.0007927 0)
(0.996589 0.00253729 0)
(0.996251 0.00367192 0)
(0.996594 0.00423319 0)
(1.00028 0.00107706 0)
(1.00079 -0.00233205 0)
(0.99808 0.000119665 0)
(0.998826 0.00184584 0)
(1.00034 -0.000461665 0)
(0.99866 -0.00143793 0)
(0.998825 -0.00164189 0)
(0.99729 -0.00132079 0)
(0.995578 0.00163488 0)
(0.997907 0.00116695 0)
(0.998577 0.000913039 0)
(0.997956 0.00288466 0)
(0.999986 0.000997915 0)
(0.999782 -6.81256e-05 0)
(0.99818 0.00113941 0)
(0.998235 0.000844571 0)
(0.998204 0.000909847 0)
(0.996979 0.0025165 0)
(0.996527 0.00375984 0)
(0.996867 0.00431007 0)
(1.00025 0.00105407 0)
(1.00079 -0.00224116 0)
(0.998253 4.9431e-05 0)
(0.998843 0.00186254 0)
(1.00027 -0.000517516 0)
(0.998671 -0.00125987 0)
(0.998887 -0.00152735 0)
(0.99752 -0.00130202 0)
(0.995771 0.00158275 0)
(0.997929 0.00117307 0)
(0.998762 0.000798165 0)
(0.998035 0.00277497 0)
(0.999842 0.00119652 0)
(0.999874 -1.18515e-05 0)
(0.998346 0.00121408 0)
(0.998287 0.00117501 0)
(0.998443 0.00106426 0)
(0.997381 0.00247517 0)
(0.99683 0.00380311 0)
(0.997113 0.00438725 0)
(1.00023 0.00102563 0)
(1.00079 -0.00213494 0)
(0.998433 -3.71241e-05 0)
(0.998863 0.00188217 0)
(1.0002 -0.000553561 0)
(0.99869 -0.00110904 0)
(0.998947 -0.0013819 0)
(0.997753 -0.00129734 0)
(0.995975 0.00152425 0)
(0.997949 0.00121207 0)
(0.998947 0.00069035 0)
(0.998143 0.00265274 0)
(0.999704 0.00140798 0)
(0.999956 7.12502e-05 0)
(0.998545 0.00123472 0)
(0.998353 0.00146884 0)
(0.998651 0.00125357 0)
(0.997784 0.00242402 0)
(0.997164 0.00379509 0)
(0.997348 0.00444914 0)
(1.0002 0.000991727 0)
(1.00079 -0.00201303 0)
(0.998619 -0.000136761 0)
(0.998889 0.00189798 0)
(1.00014 -0.000566845 0)
(0.998721 -0.000988673 0)
(0.999003 -0.00121196 0)
(0.997986 -0.00129483 0)
(0.996195 0.00144978 0)
(0.997967 0.00128555 0)
(0.999128 0.000604044 0)
(0.998281 0.00250415 0)
(0.999575 0.00161325 0)
(1.00002 0.00018824 0)
(0.998773 0.00121944 0)
(0.998444 0.00170928 0)
(0.99883 0.00146894 0)
(0.998176 0.00238532 0)
(0.997527 0.00374379 0)
(0.997587 0.00448343 0)
(1.00018 0.000950984 0)
(1.00078 -0.0018761 0)
(0.99881 -0.000247784 0)
(0.99892 0.00190177 0)
(1.00008 -0.000551602 0)
(0.998762 -0.000898613 0)
(0.999057 -0.00102717 0)
(0.998217 -0.0012796 0)
(0.996433 0.00135094 0)
(0.997988 0.00138184 0)
(0.999299 0.00055131 0)
(0.998448 0.00232394 0)
(0.999465 0.00180186 0)
(1.00007 0.000348975 0)
(0.99902 0.00119169 0)
(0.998566 0.00189094 0)
(0.998985 0.0016965 0)
(0.998547 0.00237158 0)
(0.997914 0.00366162 0)
(0.997844 0.0044786 0)
(1.00017 0.00090349 0)
(1.00077 -0.00172262 0)
(0.999005 -0.000372204 0)
(0.998959 0.00189132 0)
(1.00001 -0.000506076 0)
(0.998814 -0.000834123 0)
(0.99911 -0.000831358 0)
(0.998441 -0.00123944 0)
(0.996689 0.00123131 0)
(0.998014 0.00148527 0)
(0.999456 0.000542986 0)
(0.998643 0.00211803 0)
(0.999382 0.00195405 0)
(1.00009 0.000546321 0)
(0.999277 0.00116628 0)
(0.998724 0.00201486 0)
(0.999125 0.00192032 0)
(0.998889 0.00238346 0)
(0.998315 0.0035614 0)
(0.998124 0.00443912 0)
(1.00015 0.000849292 0)
(1.00075 -0.00155504 0)
(0.999201 -0.000500151 0)
(0.999008 0.00186111 0)
(0.999954 -0.000430241 0)
(0.998877 -0.00079343 0)
(0.999165 -0.000634184 0)
(0.998654 -0.00116556 0)
(0.996962 0.00109404 0)
(0.998052 0.00158165 0)
(0.999592 0.0005876 0)
(0.998859 0.00190467 0)
(0.999334 0.00205657 0)
(1.0001 0.000768746 0)
(0.999532 0.00116304 0)
(0.998918 0.00209128 0)
(0.99926 0.00213092 0)
(0.999199 0.00242088 0)
(0.998723 0.00344854 0)
(0.99843 0.00437013 0)
(1.00014 0.000787244 0)
(1.00073 -0.00137276 0)
(0.999397 -0.00062793 0)
(0.999069 0.0018056 0)
(0.999894 -0.000325666 0)
(0.99895 -0.000771697 0)
(0.999226 -0.000444614 0)
(0.998853 -0.00104966 0)
(0.997249 0.00094581 0)
(0.998108 0.00165704 0)
(0.999708 0.000677051 0)
(0.999086 0.00170933 0)
(0.999328 0.00210058 0)
(1.0001 0.000999255 0)
(0.999778 0.0011915 0)
(0.999146 0.00213047 0)
(0.999397 0.00231924 0)
(0.999471 0.00248652 0)
(0.999127 0.00333052 0)
(0.998762 0.00426803 0)
(1.00012 0.000718512 0)
(1.0007 -0.00117748 0)
(0.999588 -0.000755022 0)
(0.999143 0.00172318 0)
(0.999833 -0.000197313 0)
(0.999029 -0.000759714 0)
(0.999295 -0.000273451 0)
(0.999035 -0.000887935 0)
(0.997543 0.000801763 0)
(0.998186 0.00169519 0)
(0.999804 0.000798178 0)
(0.999316 0.0015548 0)
(0.999363 0.00209776 0)
(1.00009 0.00121408 0)
(1.00001 0.001241 0)
(0.9994 0.0021382 0)
(0.999546 0.00247563 0)
(0.999706 0.00258175 0)
(0.999515 0.00322699 0)
(0.999121 0.00413204 0)
(1.00012 0.000643421 0)
(1.00067 -0.000973848 0)
(0.999771 -0.000870316 0)
(0.999232 0.00161023 0)
(0.999771 -4.80736e-05 0)
(0.999112 -0.000749254 0)
(0.999379 -0.000133521 0)
(0.999201 -0.000692114 0)
(0.997837 0.0006794 0)
(0.99829 0.00168702 0)
(0.999888 0.000932599 0)
(0.999541 0.00144886 0)
(0.999435 0.00206783 0)
(1.00009 0.00139773 0)
(1.00022 0.00130972 0)
(0.999677 0.00212657 0)
(0.999716 0.00259328 0)
(0.999908 0.00269532 0)
(0.99987 0.00315182 0)
(0.9995 0.00396199 0)
(1.00011 0.000562459 0)
(1.00062 -0.000762009 0)
(0.999942 -0.000970577 0)
(0.999335 0.00146365 0)
(0.99971 0.000118019 0)
(0.999194 -0.000730804 0)
(0.999477 -3.20253e-05 0)
(0.999354 -0.000472561 0)
(0.998124 0.000593079 0)
(0.998418 0.00163892 0)
(0.999966 0.00105983 0)
(0.999755 0.00139402 0)
(0.999537 0.00202895 0)
(1.0001 0.00155151 0)
(1.00041 0.0013914 0)
(0.999968 0.00210294 0)
(0.999912 0.00266594 0)
(1.00009 0.00281247 0)
(1.00018 0.00312178 0)
(0.999883 0.00378492 0)
(1.0001 0.000477762 0)
(1.00057 -0.000554182 0)
(1.0001 -0.00104444 0)
(0.999455 0.00128396 0)
(0.999651 0.000297912 0)
(0.999269 -0.000689813 0)
(0.999592 1.927e-05 0)
(0.999497 -0.000246521 0)
(0.998395 0.000567523 0)
(0.998565 0.00156464 0)
(1.00005 0.00116137 0)
(0.999959 0.00137508 0)
(0.999661 0.00199434 0)
(1.00013 0.00168295 0)
(1.00058 0.00147681 0)
(1.00026 0.00207389 0)
(1.00014 0.00269455 0)
(1.00026 0.00291241 0)
(1.00044 0.00313415 0)
(1.00025 0.00363278 0)
(1.0001 0.000393232 0)
(1.00051 -0.000361392 0)
(1.00023 -0.00108062 0)
(0.999589 0.00107376 0)
(0.999598 0.000474605 0)
(0.99933 -0.000610257 0)
(0.99972 2.6847e-05 0)
(0.99964 -3.02105e-05 0)
(0.998646 0.000609634 0)
(0.998723 0.0014895 0)
(1.00013 0.00122415 0)
(1.00015 0.00136855 0)
(0.999804 0.00197035 0)
(1.00016 0.00179919 0)
(1.00073 0.00156657 0)
(1.00056 0.00204571 0)
(1.00039 0.00269037 0)
(1.00044 0.0029814 0)
(1.00066 0.00316636 0)
(1.00058 0.00352269 0)
(1.0001 0.000310537 0)
(1.00045 -0.000187604 0)
(1.00034 -0.00107339 0)
(0.999736 0.000836474 0)
(0.999557 0.000636022 0)
(0.999373 -0.000483971 0)
(0.999857 -5.15442e-07 0)
(0.99979 0.000157218 0)
(0.998876 0.000700716 0)
(0.99888 0.00143292 0)
(1.00022 0.00125117 0)
(1.00034 0.0013622 0)
(0.999964 0.00195322 0)
(1.0002 0.0019079 0)
(1.00086 0.00166494 0)
(1.00084 0.00201713 0)
(1.00067 0.00265715 0)
(1.00064 0.0030172 0)
(1.00086 0.00319736 0)
(1.00086 0.00345561 0)
(1.00009 0.000232668 0)
(1.00038 -4.01715e-05 0)
(1.00042 -0.00102068 0)
(0.999892 0.000584123 0)
(0.999533 0.000764897 0)
(0.999393 -0.000302778 0)
(0.999996 -4.64449e-05 0)
(0.999954 0.000279595 0)
(0.999089 0.000822308 0)
(0.999027 0.00141802 0)
(1.00032 0.00126449 0)
(1.00053 0.00134395 0)
(1.00014 0.00192604 0)
(1.00026 0.00200453 0)
(1.00097 0.0017738 0)
(1.0011 0.00199695 0)
(1.00096 0.00259682 0)
(1.00085 0.00302085 0)
(1.00105 0.00321398 0)
(1.00109 0.00341887 0)
(1.00009 0.000163216 0)
(1.00031 7.91782e-05 0)
(1.00048 -0.000923987 0)
(1.00005 0.000331317 0)
(0.999534 0.000843253 0)
(0.999393 -8.47858e-05 0)
(1.00012 -7.34337e-05 0)
(1.00013 0.000324789 0)
(0.999296 0.000942474 0)
(0.999161 0.00145138 0)
(1.0004 0.0012863 0)
(1.00072 0.00131946 0)
(1.00034 0.00188918 0)
(1.00034 0.0020829 0)
(1.00105 0.00189174 0)
(1.00134 0.00200124 0)
(1.00127 0.00252078 0)
(1.00109 0.00299319 0)
(1.00123 0.00321071 0)
(1.00129 0.00339581 0)
(1.00009 0.000102622 0)
(1.00024 0.000172349 0)
(1.0005 -0.000792211 0)
(1.00021 0.000100543 0)
(0.999564 0.000860235 0)
(0.999377 0.000163106 0)
(1.00023 -5.48749e-05 0)
(1.00033 0.000309382 0)
(0.999508 0.00103498 0)
(0.999282 0.00152344 0)
(1.00047 0.00132722 0)
(1.00089 0.0012916 0)
(1.00055 0.00183331 0)
(1.00044 0.00213419 0)
(1.00112 0.00200636 0)
(1.00154 0.00203117 0)
(1.00156 0.00244382 0)
(1.00134 0.0029336 0)
(1.00142 0.00318363 0)
(1.00146 0.00336317 0)
(1.00008 5.33225e-05 0)
(1.00018 0.00023205 0)
(1.0005 -0.00063666 0)
(1.00036 -0.000101457 0)
(0.999628 0.000804281 0)
(0.999356 0.000426553 0)
(1.0003 3.46898e-05 0)
(1.00052 0.000262488 0)
(0.999736 0.00106885 0)
(0.999396 0.00161265 0)
(1.00051 0.00140847 0)
(1.00105 0.0012821 0)
(1.00078 0.00175766 0)
(1.00057 0.00215302 0)
(1.00119 0.00210604 0)
(1.0017 0.00207959 0)
(1.00184 0.00238267 0)
(1.00161 0.00285294 0)
(1.00163 0.00313826 0)
(1.00164 0.0033066 0)
(1.00008 1.70233e-05 0)
(1.00013 0.000258646 0)
(1.00047 -0.00047033 0)
(1.00048 -0.000262626 0)
(0.999726 0.000697699 0)
(0.999344 0.00065768 0)
(1.00033 0.000189705 0)
(1.0007 0.00021628 0)
(0.999982 0.00102927 0)
(0.999521 0.00168713 0)
(1.00054 0.0015239 0)
(1.00117 0.00130698 0)
(1.00101 0.00168075 0)
(1.00073 0.00213439 0)
(1.00126 0.00218393 0)
(1.00183 0.00213727 0)
(1.00209 0.00234223 0)
(1.00189 0.00276335 0)
(1.00183 0.00308229 0)
(1.00182 0.0032322 0)
(1.00007 -8.215e-06 0)
(1.00009 0.0002574 0)
(1.00043 -0.000304388 0)
(1.00059 -0.000361272 0)
(0.999853 0.000560731 0)
(0.999351 0.00083653 0)
(1.00033 0.000393151 0)
(1.00085 0.000208714 0)
(1.00024 0.000938892 0)
(0.999669 0.00172163 0)
(1.00055 0.00164849 0)
(1.00126 0.0013699 0)
(1.00123 0.00162286 0)
(1.00091 0.00208082 0)
(1.00134 0.0022255 0)
(1.00193 0.00218988 0)
(1.00231 0.00231466 0)
(1.00216 0.00266565 0)
(1.00205 0.00301184 0)
(1.002 0.00315205 0)
(1.00007 -2.10069e-05 0)
(1.00005 0.00022913 0)
(1.00037 -0.000143298 0)
(1.00066 -0.000396072 0)
(1 0.000400954 0)
(0.99939 0.000952209 0)
(1.0003 0.000620528 0)
(1.00096 0.000267391 0)
(1.00051 0.00083194 0)
(0.999848 0.00168883 0)
(1.00056 0.00176161 0)
(1.00131 0.00146825 0)
(1.00142 0.00160025 0)
(1.00111 0.00202015 0)
(1.00144 0.00223047 0)
(1.00201 0.0022282 0)
(1.00249 0.00229989 0)
(1.00242 0.00256729 0)
(1.00227 0.00292387 0)
(1.00216 0.00307978 0)
(1.00006 -2.32713e-05 0)
(1.00003 0.000187803 0)
(1.00031 -7.40692e-07 0)
(1.00071 -0.000365773 0)
(1.00016 0.000245052 0)
(0.999466 0.000991009 0)
(1.00026 0.000837114 0)
(1.00102 0.000388176 0)
(1.00075 0.000749259 0)
(1.00006 0.00159345 0)
(1.0006 0.00183563 0)
(1.00133 0.00157649 0)
(1.00157 0.00160953 0)
(1.0013 0.00196882 0)
(1.00156 0.00221259 0)
(1.00209 0.00224492 0)
(1.00263 0.00229302 0)
(1.00266 0.00247743 0)
(1.0025 0.00281118 0)
(1.00233 0.00300748 0)
(1.00005 -1.71614e-05 0)
(1.00002 0.000141453 0)
(1.00026 0.000116974 0)
(1.00073 -0.000281178 0)
(1.00032 0.000116087 0)
(0.99958 0.000964572 0)
(1.00023 0.00102055 0)
(1.00104 0.00054606 0)
(1.00096 0.000707208 0)
(1.00029 0.0014749 0)
(1.00066 0.00184797 0)
(1.00134 0.00168072 0)
(1.0017 0.00164667 0)
(1.00149 0.00193385 0)
(1.00169 0.00218871 0)
(1.00217 0.00224245 0)
(1.00274 0.00228196 0)
(1.00286 0.00240424 0)
(1.00274 0.00267927 0)
(1.00249 0.00291832 0)
(1.00004 -6.01672e-06 0)
(1.00002 9.84963e-05 0)
(1.00022 0.00020382 0)
(1.00072 -0.000164714 0)
(1.00047 3.51724e-05 0)
(0.999728 0.000895146 0)
(1.00023 0.00115171 0)
(1.00103 0.000723512 0)
(1.00113 0.000718511 0)
(1.00053 0.00136078 0)
(1.00076 0.00180382 0)
(1.00136 0.00175077 0)
(1.00179 0.00169587 0)
(1.00166 0.00191136 0)
(1.00182 0.00216371 0)
(1.00225 0.00223241 0)
(1.00283 0.00226099 0)
(1.00303 0.00234964 0)
(1.00297 0.00255056 0)
(1.00267 0.00280165 0)
(1.00004 6.6466e-06 0)
(1.00003 6.6939e-05 0)
(1.00018 0.000261157 0)
(1.00069 -3.9788e-05 0)
(1.00059 1.26982e-05 0)
(0.9999 0.000796131 0)
(1.00025 0.00122061 0)
(1.001 0.000894928 0)
(1.00126 0.00078478 0)
(1.00075 0.0012678 0)
(1.00089 0.00173791 0)
(1.00139 0.001774 0)
(1.00186 0.00173719 0)
(1.00181 0.00189723 0)
(1.00195 0.00213252 0)
(1.00232 0.00221964 0)
(1.00291 0.00222997 0)
(1.00316 0.0022979 0)
(1.00317 0.00243963 0)
(1.00287 0.00265901 0)
(1.00003 2.07794e-05 0)
(1.00004 4.72831e-05 0)
(1.00017 0.000294571 0)
(1.00066 8.87018e-05 0)
(1.00069 4.2665e-05 0)
(1.00008 0.00069931 0)
(1.00031 0.00122791 0)
(1.00098 0.00103674 0)
(1.00134 0.0008773 0)
(1.00095 0.00121088 0)
(1.00104 0.00166141 0)
(1.00144 0.00176879 0)
(1.00193 0.00175498 0)
(1.00194 0.00188681 0)
(1.00208 0.00209699 0)
(1.00239 0.00220499 0)
(1.00297 0.00220234 0)
(1.00326 0.00224089 0)
(1.00333 0.0023493 0)
(1.00307 0.00251385 0)
(1.00002 3.32146e-05 0)
(1.00006 4.21223e-05 0)
(1.00016 0.000309359 0)
(1.00062 0.000209172 0)
(1.00076 0.000113197 0)
(1.00026 0.000628389 0)
(1.0004 0.0011934 0)
(1.00096 0.00114326 0)
(1.0014 0.000978587 0)
(1.00112 0.00119703 0)
(1.00119 0.00158488 0)
(1.0015 0.00174496 0)
(1.00199 0.00175297 0)
(1.00206 0.00186554 0)
(1.0022 0.00205558 0)
(1.00246 0.00217854 0)
(1.00301 0.00218141 0)
(1.00334 0.00218122 0)
(1.00347 0.00226403 0)
(1.00324 0.00238308 0)
(1.00001 4.4001e-05 0)
(1.00007 4.87795e-05 0)
(1.00017 0.000314451 0)
(1.0006 0.000306511 0)
(1.00081 0.000208205 0)
(1.00042 0.000590304 0)
(1.00051 0.00113843 0)
(1.00096 0.00120671 0)
(1.00143 0.0010776 0)
(1.00125 0.00121432 0)
(1.00133 0.00153166 0)
(1.00158 0.00170771 0)
(1.00206 0.00174313 0)