/*--------------------------------*- C++ -*----------------------------------*\
| =========                 |                                                 |
| \\      /  F ield         | OpenFOAM: The Open Source CFD Toolbox           |
|  \\    /   O peration     | Version:  2506                                  |
|   \\  /    A nd           | Website:  www.openfoam.com                      |
|    \\/     M anipulation  |                                                 |
\*---------------------------------------------------------------------------*/
FoamFile
{
    version     2.0;
    format      ascii;
    arch        "LSB;label=32;scalar=64";
    class       surfaceScalarField;
    location    "9.15";
    object      phi;
}
// * * * * * * * * * * * * * * * * * * * * * * * * * * * * * * * * * * * * * //

dimensions      [0 3 -1 0 0 0 0];

oriented        oriented;

internalField   nonuniform List<scalar> 
19000
(
1.20504e-06
7.32726e-07
1.08708e-06
-7.32321e-07
1.20996e-06
1.64182e-06
1.17463e-06
1.12757e-06
1.05851e-06
-9.76214e-07
1.15618e-06
-2.62651e-07
1.2076e-06
1.00057e-06
1.10779e-06
1.25474e-07
1.16567e-06
9.5672e-07
1.10352e-06
3.16118e-07
1.13074e-06
3.17245e-07
1.13082e-06
9.45503e-07
1.09922e-06
2.693e-07
1.13272e-06
4.19697e-07
1.13668e-06
-1.27618e-07
1.14648e-06
2.77661e-08
1.15236e-06
-1.28461e-07
1.15099e-06
7.15432e-09
1.15667e-06
1.14828e-08
8.22457e-08
1.12775e-06
1.25981e-06
6.97181e-07
1.13743e-06
-6.09944e-07
1.26525e-06
1.51401e-06
1.23871e-06
1.15411e-06
1.12173e-06
-8.59239e-07
1.21579e-06
-3.56711e-07
1.26555e-06
9.50814e-07
1.16079e-06
2.30229e-07
1.21948e-06
8.9803e-07
1.16077e-06
3.74838e-07
1.17961e-06
2.98402e-07
1.20515e-06
9.19962e-07
1.15856e-06
3.15889e-07
1.20388e-06
3.74376e-07
1.19576e-06
-1.19493e-07
1.22064e-06
2.88302e-09
1.20613e-06
-1.13954e-07
1.22661e-06
-1.33211e-08
1.20231e-06
3.57783e-08
6.86693e-08
1.21589e-06
1.31737e-06
6.62597e-07
1.19243e-06
-4.85002e-07
1.31604e-06
1.3904e-06
1.31107e-06
1.15907e-06
1.19328e-06
-7.41442e-07
1.27481e-06
-4.3825e-07
1.32585e-06
8.9978e-07
1.22555e-06
3.30524e-07
1.27326e-06
8.50322e-07
1.23086e-06
4.17242e-07
1.23015e-06
2.99109e-07
1.28362e-06
8.66486e-07
1.22327e-06
3.76242e-07
1.26577e-06
3.31879e-07
1.25394e-06
-1.07661e-07
1.27764e-06
-2.08188e-08
1.26367e-06
-9.99844e-08
1.27749e-06
-2.71376e-08
1.26631e-06
4.6953e-08
7.35815e-08
1.2614e-06
1.37725e-06
6.29454e-07
1.25422e-06
-3.61972e-07
1.36549e-06
1.27912e-06
1.38996e-06
1.13461e-06
1.27111e-06
-6.22589e-07
1.33417e-06
-5.01308e-07
1.3869e-06
8.47042e-07
1.30061e-06
4.16822e-07
1.33099e-06
8.19935e-07
1.31076e-06
4.37478e-07
1.28523e-06
3.24637e-07
1.34721e-06
8.04509e-07
1.29426e-06
4.29189e-07
1.3187e-06
3.07446e-07
1.31278e-06
-1.01745e-07
1.32836e-06
-3.63992e-08
1.32134e-06
-9.2966e-08
1.3283e-06
-3.40931e-08
1.32458e-06
5.06735e-08
8.10099e-08
1.31715e-06
1.43929e-06
5.98513e-07
1.32475e-06
-2.47431e-07
1.41509e-06
1.18878e-06
1.46985e-06
1.07984e-06
1.352e-06
-5.04735e-07
1.39205e-06
-5.41364e-07
1.44637e-06
7.92725e-07
1.38247e-06
4.80728e-07
1.39403e-06
8.08369e-07
1.39021e-06
4.41296e-07
1.34897e-06
3.65878e-07
1.39971e-06
7.53767e-07
1.36924e-06
4.59666e-07
1.37741e-06
2.9927e-07
1.37482e-06
-9.91537e-08
1.38606e-06
-4.76417e-08
1.38236e-06
-8.92616e-08
1.38709e-06
-3.88209e-08
1.38481e-06
5.29453e-08
8.75832e-08
1.37824e-06
1.50333e-06
5.70863e-07
1.40442e-06
-1.48522e-07
1.468e-06
1.1252e-06
1.54506e-06
1.00279e-06
1.43428e-06
-3.9396e-07
1.44912e-06
-5.56205e-07
1.50328e-06
7.38564e-07
1.46544e-06
5.18566e-07
1.46213e-06
8.11682e-07
1.4638e-06
4.39632e-07
1.42139e-06
4.08286e-07
1.45428e-06
7.20872e-07
1.44524e-06
4.68712e-07
1.44701e-06
2.97495e-07
1.44276e-06
-9.49049e-08
1.45175e-06
-5.66275e-08
1.44951e-06
-8.70241e-08
1.4531e-06
-4.24126e-08
1.4516e-06
5.44516e-08
9.37117e-08
1.44547e-06
1.56954e-06
5.4754e-07
1.49143e-06
-7.04088e-08
1.52802e-06
1.0886e-06
1.61411e-06
9.16697e-07
1.51825e-06
-2.98098e-07
1.50855e-06
-5.465e-07
1.55918e-06
6.87934e-07
1.54548e-06
5.32265e-07
1.53398e-06
8.23182e-07
1.53379e-06
4.39819e-07
1.49878e-06
4.43294e-07
1.51746e-06
7.02193e-07
1.52138e-06
4.64797e-07
1.52419e-06
2.94677e-07
1.51755e-06
-8.82642e-08
1.52378e-06
-6.28546e-08
1.52203e-06
-8.52727e-08
1.52471e-06
-4.50937e-08
1.52398e-06
5.51784e-08
9.92414e-08
1.51845e-06
1.63858e-06
5.29088e-07
1.58273e-06
-1.45601e-08
1.59772e-06
1.07362e-06
1.68013e-06
8.34283e-07
1.60438e-06
-2.22345e-07
1.57407e-06
-5.16196e-07
1.61754e-06
6.4447e-07
1.62195e-06
5.27858e-07
1.60849e-06
8.36635e-07
1.60542e-06
4.42894e-07
1.57819e-06
4.70525e-07
1.58878e-06
6.91605e-07
1.59898e-06
4.54597e-07
1.60542e-06
2.88233e-07
1.59817e-06
-8.10167e-08
1.60155e-06
-6.62304e-08
1.59904e-06
-8.2763e-08
1.60052e-06
-4.65756e-08
1.60042e-06
5.52804e-08
1.04006e-07
1.59565e-06
1.71127e-06
5.15394e-07
1.67566e-06
2.10536e-08
1.67737e-06
1.0719e-06
1.74772e-06
7.6393e-07
1.69205e-06
-1.66673e-07
1.64806e-06
-4.72209e-07
1.68227e-06
6.10267e-07
1.69714e-06
5.12986e-07
1.68575e-06
8.48023e-07
1.68237e-06
4.46275e-07
1.65997e-06
4.92925e-07
1.6668e-06
6.84771e-07
1.68016e-06
4.4124e-07
1.68985e-06
2.78538e-07
1.68347e-06
-7.4631e-08
1.68467e-06
-6.74373e-08
1.68071e-06
-7.87993e-08
1.68028e-06
-4.61474e-08
1.68027e-06
5.529e-08
1.08066e-07
1.67621e-06
1.78825e-06
5.05866e-07
1.76885e-06
4.04534e-08
1.76533e-06
1.07542e-06
1.82024e-06
7.09021e-07
1.7803e-06
-1.26736e-07
1.73084e-06
-4.22741e-07
1.75607e-06
5.85034e-07
1.77466e-06
4.94395e-07
1.76687e-06
8.55815e-07
1.76563e-06
4.47515e-07
1.74621e-06
5.1234e-07
1.75155e-06
6.79428e-07
1.76671e-06
4.26089e-07
1.77813e-06
2.67116e-07
1.77292e-06
-6.94186e-08
1.77258e-06
-6.70994e-08
1.7672e-06
-7.34247e-08
1.76446e-06
-4.34055e-08
1.76378e-06
5.59737e-08
1.1171e-07
1.76013e-06
1.86989e-06
4.99725e-07
1.8623e-06
4.80456e-08
1.8593e-06
1.07842e-06
1.89908e-06
6.69245e-07
1.86907e-06
-9.67268e-08
1.82124e-06
-3.74912e-07
1.83963e-06
5.66642e-07
1.85765e-06
4.76383e-07
1.85324e-06
8.60222e-07
1.85464e-06
4.46118e-07
1.83837e-06
5.28606e-07
1.84334e-06
6.74455e-07
1.85934e-06
4.10094e-07
1.87076e-06
2.55691e-07
1.86624e-06
-6.48936e-08
1.86462e-06
-6.54848e-08
1.85817e-06
-6.6969e-08
1.85335e-06
-3.85894e-08
1.85141e-06
5.79154e-08
1.1531e-07
1.84781e-06
1.95637e-06
4.96193e-07
1.95675e-06
4.76665e-08
1.9574e-06
1.07777e-06
1.9843e-06
6.42347e-07
1.95937e-06
-7.17936e-08
1.91762e-06
-3.33165e-07
1.93192e-06
5.52337e-07
1.94758e-06
4.60726e-07
1.94572e-06
8.62085e-07
1.9487e-06
4.43131e-07
1.93657e-06
5.40744e-07
1.94168e-06
6.69344e-07
1.95763e-06
3.94143e-07
1.96761e-06
2.45706e-07
1.96303e-06
-6.03073e-08
1.96021e-06
-6.26708e-08
1.95294e-06
-5.96966e-08
1.94675e-06
-3.23955e-08
1.94337e-06
6.1295e-08
1.19097e-07
1.93958e-06
2.04784e-06
4.94544e-07
2.05316e-06
4.23411e-08
2.05852e-06
1.07241e-06
2.0755e-06
6.25372e-07
2.05269e-06
-4.89833e-08
2.01857e-06
-2.99045e-07
2.03113e-06
5.39777e-07
2.04426e-06
4.47596e-07
2.04428e-06
8.62057e-07
2.04749e-06
4.39927e-07
2.04011e-06
5.4812e-07
2.04542e-06
6.64031e-07
2.06059e-06
3.78981e-07
2.06818e-06
2.38114e-07
2.06285e-06
-5.49812e-08
2.05892e-06
-5.87361e-08
2.05093e-06
-5.17111e-08
2.04416e-06
-2.56232e-08
2.03954e-06
6.59166e-08
1.23089e-07
2.03555e-06
2.14446e-06
4.94089e-07
2.15237e-06
3.44278e-08
2.16222e-06
1.06256e-06
2.1723e-06
6.15292e-07
2.15036e-06
-2.70388e-08
2.12323e-06
-2.71915e-07
2.13547e-06
5.27533e-07
2.14654e-06
4.36525e-07
2.14827e-06
8.60326e-07
2.15072e-06
4.37474e-07
2.14807e-06
5.50777e-07
2.15338e-06
6.58713e-07
2.1673e-06
3.65064e-07
2.17209e-06
2.33329e-07
2.16555e-06
-4.84397e-08
2.16066e-06
-5.3852e-08
2.15187e-06
-4.29215e-08
2.14519e-06
-1.89402e-08
2.13976e-06
7.13469e-08
1.27187e-07
2.13566e-06
2.24639e-06
4.94188e-07
2.25502e-06
2.57974e-08
2.26855e-06
1.04903e-06
2.27452e-06
6.09321e-07
2.25326e-06
-5.78397e-09
2.23127e-06
-2.49921e-07
2.24369e-06
5.15116e-07
2.25321e-06
4.26996e-07
2.25679e-06
8.56755e-07
2.258e-06
4.36257e-07
2.25957e-06
5.49213e-07
2.26469e-06
6.53591e-07
2.27726e-06
3.52488e-07
2.27936e-06
2.31234e-07
2.27134e-06
-4.04247e-08
2.26577e-06
-4.82803e-08
2.25598e-06
-3.31264e-08
2.24976e-06
-1.27212e-08
2.24408e-06
7.7025e-08
1.31326e-07
2.23994e-06
2.35378e-06
4.94284e-07
2.36169e-06
1.7891e-08
2.37792e-06
1.0328e-06
2.38207e-06
6.05168e-07
2.36184e-06
1.44412e-08
2.34279e-06
-2.30863e-07
2.35523e-06
5.02667e-07
2.36352e-06
4.18708e-07
2.36915e-06
8.51122e-07
2.36896e-06
4.36457e-07
2.37409e-06
5.44081e-07
2.37898e-06
6.48703e-07
2.39042e-06
3.41047e-07
2.39038e-06
2.31269e-07
2.3808e-06
-3.08405e-08
2.37489e-06
-4.2374e-08
2.3639e-06
-2.21375e-08
2.35818e-06
-6.99367e-09
2.35285e-06
8.23489e-08
1.35542e-07
2.34864e-06
2.46674e-06
4.93939e-07
2.47293e-06
1.16975e-08
2.49102e-06
1.01471e-06
2.49495e-06
6.01239e-07
2.47624e-06
3.31569e-08
2.45816e-06
-2.12791e-07
2.47029e-06
4.90537e-07
2.47736e-06
4.11641e-07
2.48515e-06
8.43332e-07
2.48356e-06
4.38052e-07
2.49163e-06
5.36003e-07
2.49642e-06
6.4392e-07
2.50706e-06
3.30407e-07
2.50572e-06
2.32604e-07
2.49456e-06
-1.96831e-08
2.4887e-06
-3.65091e-08
2.47653e-06
-9.96366e-09
2.47098e-06
-1.45124e-09
2.46659e-06
8.67402e-08
1.39925e-07
2.46221e-06
2.58539e-06
4.92844e-07
2.58932e-06
7.76182e-09
2.60867e-06
9.95368e-07
2.61325e-06
5.9666e-07
2.59646e-06
4.99489e-08
2.57793e-06
-1.94267e-07
2.58952e-06
4.78952e-07
2.59522e-06
4.05944e-07
2.60507e-06
8.33478e-07
2.60226e-06
4.40857e-07
2.61274e-06
5.25527e-07
2.61759e-06
6.39071e-07
2.62769e-06
3.20309e-07
2.62593e-06
2.34359e-07
2.61323e-06
-6.9778e-09
2.60773e-06
-3.10107e-08
2.59466e-06
3.10292e-09
2.58876e-06
4.44921e-09
2.58577e-06
8.97286e-08
1.44483e-07
2.58122e-06
2.70988e-06
4.90794e-07
2.71136e-06
6.27818e-09
2.7316e-06
9.75132e-07
2.73713e-06
5.91133e-07
2.72253e-06
6.45444e-08
2.70261e-06
-1.74347e-07
2.71366e-06
4.67902e-07
2.71788e-06
4.01727e-07
2.72958e-06
8.21774e-07
2.72583e-06
4.44604e-07
2.73821e-06
5.13153e-07
2.74325e-06
6.34032e-07
2.75285e-06
3.10702e-07
2.75149e-06
2.35725e-07
2.73727e-06
7.2399e-09
2.73232e-06
-2.6066e-08
2.7189e-06
1.65239e-08
2.71205e-06
1.13058e-08
2.71072e-06
9.10577e-08
1.49045e-07
2.70616e-06
2.84041e-06
4.87657e-07
2.83945e-06
7.23137e-09
2.86042e-06
9.54166e-07
2.86681e-06
5.84738e-07
2.85456e-06
7.68009e-08
2.83265e-06
-1.52445e-07
2.84334e-06
4.57214e-07
2.84615e-06
3.98923e-07
2.85947e-06
8.08451e-07
2.85505e-06
4.49024e-07
2.86882e-06
4.99385e-07
2.87408e-06
6.28768e-07
2.88306e-06
3.01721e-07
2.88273e-06
2.36062e-07
2.8671e-06
2.28655e-08
2.86269e-06
-2.16525e-08
2.84961e-06
2.95968e-08
2.84127e-06
1.9653e-08
2.84158e-06
9.07472e-08
1.53246e-07
2.83738e-06
2.9772e-06
4.83351e-07
2.97392e-06
1.05168e-08
2.99563e-06
9.32451e-07
3.00257e-06
5.77796e-07
2.9927e-06
8.66766e-08
2.96851e-06
-1.28258e-07
2.97906e-06
4.46661e-07
2.98068e-06
3.97304e-07
2.9954e-06
7.9373e-07
2.99055e-06
4.53875e-07
3.00521e-06
4.84728e-07
3.01072e-06
6.23263e-07
3.01879e-06
2.93647e-07
3.01996e-06
2.34895e-07
3.00315e-06
3.96763e-08
2.99899e-06
-1.74939e-08
2.98703e-06
4.15586e-08
2.97688e-06
2.98032e-08
2.97842e-06
8.92072e-08
1.56532e-07
2.97513e-06
3.12053e-06
4.77826e-07
3.11504e-06
1.60087e-08
3.13768e-06
9.0981e-07
3.1447e-06
5.70779e-07
3.13716e-06
9.42104e-08
3.11066e-06
-1.01753e-07
3.12128e-06
4.36037e-07
3.12201e-06
3.96579e-07
3.13788e-06
7.77853e-07
3.13283e-06
4.58927e-07
3.14792e-06
4.6964e-07
3.15371e-06
6.17469e-07
3.16055e-06
2.86808e-07
3.1635e-06
2.31951e-07
3.14582e-06
5.73563e-08
3.14147e-06
-1.31434e-08
3.13129e-06
5.17352e-08
3.11935e-06
4.17431e-08
3.12134e-06
8.72183e-08
1.58238e-07
3.11963e-06
3.27069e-06
4.71045e-07
3.26311e-06
2.35916e-08
3.28695e-06
8.85968e-07
3.2935e-06
5.64226e-07
3.2882e-06
9.9511e-08
3.25958e-06
-7.31367e-08
3.27042e-06
4.252e-07
3.27055e-06
3.96453e-07
3.28728e-06
7.61123e-07
3.28225e-06
4.63958e-07
3.2974e-06
4.54489e-07
3.30361e-06
6.11254e-07
3.30889e-06
2.81527e-07
3.31368e-06
2.27166e-07
3.29551e-06
7.55256e-08
3.29044e-06
-8.06963e-09
3.28253e-06
5.96397e-08
3.26915e-06
5.51277e-08
3.27061e-06
8.57511e-08
1.57801e-07
3.27105e-06
3.42801e-06
4.62968e-07
3.41842e-06
3.31762e-08
3.44375e-06
8.6064e-07
3.44935e-06
5.58627e-07
3.44611e-06
1.02748e-07
3.41576e-06
-4.27804e-08
3.42685e-06
4.14109e-07
3.42667e-06
3.96629e-07
3.4439e-06
7.43892e-07
3.4391e-06
4.6876e-07
3.45404e-06
4.39547e-07
3.46088e-06
6.04416e-07
3.46434e-06
2.7807e-07
3.47084e-06
2.20668e-07
3.45262e-06
9.37422e-08
3.44627e-06
-1.72377e-09
3.44085e-06
6.5066e-08
3.4267e-06
6.9278e-08
3.42666e-06
8.57894e-08
1.54944e-07
3.42951e-06
3.59284e-06
4.53543e-07
3.58131e-06
4.47009e-08
3.60835e-06
8.33602e-07
3.61263e-06
5.54344e-07
3.61124e-06
1.04136e-07
3.57959e-06
-1.1128e-08
3.59085e-06
4.02848e-07
3.59071e-06
3.96774e-07
3.60806e-06
7.26545e-07
3.60368e-06
4.73137e-07
3.61821e-06
4.25016e-07
3.62589e-06
5.96741e-07
3.62736e-06
2.76596e-07
3.6353e-06
2.12726e-07
3.61753e-06
1.11519e-07
3.60941e-06
6.38707e-09
3.60638e-06
6.8098e-08
3.59233e-06
8.33306e-08
3.59006e-06
8.80582e-08
1.49901e-07
3.5951e-06
3.76554e-06
4.42713e-07
3.75212e-06
5.81197e-08
3.78098e-06
8.04742e-07
3.78376e-06
5.51566e-07
3.78397e-06
1.03925e-07
3.75148e-06
2.13611e-08
3.76268e-06
3.91644e-07
3.76296e-06
3.96498e-07
3.78003e-06
7.09471e-07
3.77625e-06
4.76917e-07
3.79025e-06
4.11018e-07
3.79892e-06
5.88065e-07
3.79839e-06
2.77128e-07
3.80741e-06
2.03706e-07
3.79059e-06
1.2834e-07
3.78038e-06
1.66005e-08
3.77934e-06
6.91388e-08
3.76633e-06
9.6333e-08
3.76149e-06
9.2901e-08
1.43479e-07
3.76791e-06
3.94647e-06
4.30431e-07
3.93121e-06
7.33802e-08
3.96189e-06
7.74058e-07
3.96313e-06
5.50331e-07
3.96467e-06
1.02385e-07
3.9318e-06
5.4227e-08
3.9426e-06
3.80851e-07
3.94371e-06
3.95384e-07
3.96018e-06
6.92997e-07
3.9571e-06
4.80004e-07
3.97053e-06
3.97583e-07
3.98029e-06
5.78307e-07
3.97784e-06
2.79578e-07
3.98751e-06
1.94036e-07
3.97216e-06
1.43693e-07
3.95972e-06
2.90409e-08
3.96001e-06
6.88481e-08
3.94894e-06
1.07403e-07
3.94161e-06
1.00231e-07
1.36886e-07
3.9482e-06
4.136e-06
4.1668e-07
4.11898e-06
9.04042e-08
4.1514e-06
7.41638e-07
4.15118e-06
5.50551e-07
4.15375e-06
9.98125e-08
4.12098e-06
8.69945e-08
4.13091e-06
3.70925e-07
4.13327e-06
3.93018e-07
4.14892e-06
6.77346e-07
4.14653e-06
4.824e-07
4.15946e-06
3.84653e-07
4.17032e-06
5.6744e-07
4.16609e-06
2.83808e-07
4.17596e-06
1.84168e-07
4.16256e-06
1.57095e-07
4.14797e-06
4.36351e-08
4.14878e-06
6.80305e-08
4.1403e-06
1.15882e-07
4.13107e-06
1.09468e-07
1.31529e-07
4.13642e-06
4.3345e-06
4.01481e-07
4.31583e-06
1.09081e-07
4.34983e-06
7.07629e-07
4.34835e-06
5.52034e-07
4.35162e-06
9.65465e-08
4.31945e-06
1.19159e-07
4.32799e-06
3.62385e-07
4.33197e-06
3.89039e-07
4.34671e-06
6.62609e-07
4.3449e-06
4.84214e-07
4.35742e-06
3.72125e-07
4.36943e-06
5.55435e-07
4.36355e-06
2.89683e-07
4.37316e-06
1.74561e-07
4.36213e-06
1.6813e-07
4.34557e-06
6.01926e-08
4.34612e-06
6.74838e-08
4.34056e-06
1.21442e-07
4.33037e-06
1.19653e-07
1.28585e-07
4.33332e-06
4.54237e-06
3.84887e-07
4.52218e-06
1.29266e-07
4.55759e-06
6.72223e-07
4.55513e-06
5.54489e-07
4.55869e-06
9.29897e-08
4.52768e-06
1.5017e-07
4.5343e-06
3.55761e-07
4.54014e-06
3.83201e-07
4.55407e-06
6.48683e-07
4.55261e-06
4.8567e-07
4.56484e-06
3.59896e-07
4.57804e-06
5.42237e-07
4.57066e-06
2.97065e-07
4.57949e-06
1.65723e-07
4.57118e-06
1.76447e-07
4.55299e-06
7.83755e-08
4.55242e-06
6.80549e-08
4.54983e-06
1.24036e-07
4.5399e-06
1.29582e-07
1.28679e-07
4.5398e-06
4.76002e-06
3.66978e-07
4.7385e-06
1.50795e-07
4.77505e-06
6.3567e-07
4.77203e-06
5.57509e-07
4.77539e-06
8.96304e-08
4.74614e-06
1.79422e-07
4.75034e-06
3.51556e-07
4.75813e-06
3.75414e-07
4.77154e-06
6.35266e-07
4.77013e-06
4.87083e-07
4.7821e-06
3.47928e-07
4.79661e-06
5.27726e-07
4.78786e-06
3.05811e-07
4.79538e-06
1.58206e-07
4.79004e-06
1.81793e-07
4.77075e-06
9.76647e-08
4.76827e-06
7.05336e-08
4.76834e-06
1.23961e-07
4.75988e-06
1.38039e-07
1.31732e-07
4.75683e-06
4.98793e-06
3.47844e-07
4.96525e-06
1.73477e-07
5.00262e-06
5.98296e-07
4.99957e-06
5.60559e-07
5.00214e-06
8.70606e-08
4.97532e-06
2.06244e-07
4.97673e-06
3.50144e-07
4.9863e-06
3.6585e-07
4.99968e-06
6.21884e-07
4.99799e-06
4.88768e-07
5.0096e-06
3.36323e-07
5.02558e-06
5.11744e-07
5.0157e-06
3.15697e-07
5.02129e-06
1.52615e-07
5.01909e-06
1.83986e-07
4.99938e-06
1.17374e-07
4.99449e-06
7.54318e-08
4.99652e-06
1.21926e-07
4.99037e-06
1.44194e-07
1.36873e-07
4.98523e-06
5.22658e-06
3.27585e-07
5.20296e-06
1.97091e-07
5.24072e-06
5.60532e-07
5.23831e-06
5.62969e-07
5.23942e-06
8.59532e-08
5.21573e-06
2.29935e-07
5.21418e-06
3.51696e-07
5.22506e-06
3.54969e-07
5.23897e-06
6.07973e-07
5.2368e-06
4.90944e-07
5.24778e-06
3.25339e-07
5.26535e-06
4.94172e-07
5.25472e-06
3.26326e-07
5.25781e-06
1.49523e-07
5.25871e-06
1.83086e-07
5.23949e-06
1.36603e-07
5.2319e-06
8.30208e-08
5.23493e-06
1.18888e-07
5.23139e-06
1.47739e-07
1.42721e-07
5.22554e-06
5.47646e-06
3.0631e-07
5.45218e-06
2.21372e-07
5.48979e-06
5.22927e-07
5.48883e-06
5.63924e-07
5.48771e-06
8.70803e-08
5.4679e-06
2.49746e-07
5.46339e-06
3.56203e-07
5.47488e-06
3.43475e-07
5.48987e-06
5.92983e-07
5.48715e-06
4.93663e-07
5.49713e-06
3.15359e-07
5.5163e-06
4.75002e-07
5.50557e-06
3.37059e-07
5.5056e-06
1.49497e-07
5.50933e-06
1.79353e-07
5.49157e-06
1.54359e-07
5.48127e-06
9.33243e-08
5.48426e-06
1.15901e-07
5.48329e-06
1.48702e-07
1.48079e-07
5.47793e-06
5.73812e-06
2.84149e-07
5.7135e-06
2.45992e-07
5.75029e-06
4.86135e-07
5.75173e-06
5.6248e-07
5.74751e-06
9.13035e-08
5.73224e-06
2.65019e-07
5.72507e-06
3.63376e-07
5.7363e-06
3.32239e-07
5.75281e-06
5.7647e-07
5.74971e-06
4.96766e-07
5.75822e-06
3.06852e-07
5.77888e-06
4.54336e-07
5.7688e-06
3.47144e-07
5.76535e-06
1.52946e-07
5.77135e-06
1.73348e-07
5.75607e-06
1.6964e-07
5.74326e-06
1.06141e-07
5.74534e-06
1.13822e-07
5.74651e-06
1.47532e-07
1.52092e-07
5.74249e-06
6.01209e-06
2.61255e-07
5.98752e-06
2.70563e-07
6.02276e-06
4.5089e-07
6.02764e-06
5.57607e-07
6.01945e-06
9.9492e-08
6.00895e-06
2.75518e-07
5.99986e-06
3.7246e-07
6.00994e-06
3.22168e-07
6.02821e-06
5.58192e-07
6.02509e-06
4.99891e-07
6.03167e-06
3.00269e-07
6.05358e-06
4.32432e-07
6.04494e-06
3.55784e-07
6.03788e-06
1.60002e-07
6.04525e-06
1.65978e-07
6.03335e-06
1.81536e-07
6.01851e-06
1.20982e-07
6.01896e-06
1.13371e-07
6.0217e-06
1.44799e-07
1.54406e-07
6.01938e-06
6.29893e-06
2.37818e-07
6.27486e-06
2.94624e-07
6.30779e-06
4.17964e-07
6.31705e-06
5.48348e-07
6.30437e-06
1.12171e-07
6.29822e-06
2.8167e-07
6.2884e-06
3.82281e-07
6.29647e-06
3.14089e-07
6.31652e-06
5.38148e-07
6.31389e-06
5.02516e-07
6.31821e-06
2.95953e-07
6.34095e-06
4.09693e-07
6.33441e-06
3.62325e-07
6.32411e-06
1.70303e-07
6.33157e-06
1.58512e-07
6.32372e-06
1.89387e-07
6.30775e-06
1.36957e-07
6.30587e-06
1.15249e-07
6.30967e-06
1.40994e-07
1.55005e-07
6.30907e-06
6.59923e-06
2.14062e-07
6.5762e-06
3.17653e-07
6.60605e-06
3.88114e-07
6.62028e-06
5.3411e-07
6.60325e-06
1.29206e-07
6.60041e-06
2.84513e-07
6.59121e-06
3.91474e-07
6.59669e-06
3.0861e-07
6.61822e-06
5.16616e-07
6.61669e-06
5.04044e-07
6.6186e-06
2.94043e-07
6.64161e-06
3.86685e-07
6.63774e-06
3.662e-07
6.62477e-06
1.83271e-07
6.63107e-06
1.52213e-07
6.62751e-06
1.92946e-07
6.61154e-06
1.52922e-07
6.60693e-06
1.19864e-07
6.61112e-06
1.36805e-07
1.53903e-07
6.61222e-06
6.9136e-06
1.90253e-07
6.89218e-06
3.39073e-07
6.91828e-06
3.6201e-07
6.93763e-06
5.14763e-07
6.91702e-06
1.49817e-07
6.91611e-06
2.85419e-07
6.9088e-06
3.98789e-07
6.91144e-06
3.0597e-07
6.9339e-06
4.94156e-07
6.93406e-06
5.03887e-07
6.93362e-06
2.94479e-07
6.95627e-06
3.64035e-07
6.9554e-06
3.67073e-07
6.94056e-06
1.98113e-07
6.94459e-06
1.48183e-07
6.94504e-06
1.92494e-07
6.9304e-06
1.67558e-07
6.92305e-06
1.27214e-07
6.92674e-06
1.33121e-07
1.51087e-07
6.92955e-06
7.2427e-06
1.66687e-07
7.22351e-06
3.58269e-07
7.24532e-06
3.40192e-07
7.26946e-06
4.90627e-07
7.24658e-06
1.72702e-07
7.24611e-06
2.85884e-07
7.24163e-06
4.03272e-07
7.24161e-06
3.05993e-07
7.26422e-06
4.71546e-07
7.26653e-06
5.01573e-07
7.26405e-06
2.96956e-07
7.28564e-06
3.42443e-07
7.28792e-06
3.648e-07
7.27207e-06
2.13959e-07
7.2731e-06
1.47152e-07
7.2768e-06
1.88799e-07
7.26465e-06
1.79708e-07
7.25515e-06
1.36712e-07
7.25735e-06
1.30923e-07
1.46747e-07
7.26169e-06
7.58722e-06
1.4369e-07
7.57088e-06
3.74614e-07
7.58805e-06
3.23023e-07
7.61628e-06
4.62393e-07
7.59271e-06
1.96269e-07
7.59125e-06
2.87347e-07
7.59021e-06
4.04317e-07
7.58811e-06
3.08089e-07
7.60992e-06
4.49738e-07
7.61463e-06
4.96863e-07
7.61068e-06
3.00904e-07
7.63054e-06
3.22583e-07
7.63578e-06
3.59563e-07
7.61983e-06
2.29905e-07
7.61764e-06
1.49342e-07
7.62351e-06
1.82931e-07
7.61461e-06
1.88608e-07
7.60395e-06
1.47371e-07
7.60401e-06
1.30866e-07
1.416e-07
7.60915e-06
7.94789e-06
1.21608e-07
7.93503e-06
3.87477e-07
7.94738e-06
3.10673e-07
7.97872e-06
4.31055e-07
7.95614e-06
2.18848e-07
7.95257e-06
2.90918e-07
7.95502e-06
4.01863e-07
7.95173e-06
3.11379e-07
7.97189e-06
4.29581e-07
7.9789e-06
4.89849e-07
7.97415e-06
3.05652e-07
7.99183e-06
3.0491e-07
7.99948e-06
3.51907e-07
7.98448e-06
2.44913e-07
7.97914e-06
1.54679e-07
7.98591e-06
1.76158e-07
7.98075e-06
1.93766e-07
7.96996e-06
1.58169e-07
7.9678e-06
1.33023e-07
1.36693e-07
7.9727e-06
8.32549e-06
1.00798e-07
8.31671e-06
3.96257e-07
8.32425e-06
3.0313e-07
8.35748e-06
3.97833e-07
8.33749e-06
2.38837e-07
8.33117e-06
2.97239e-07
8.33658e-06
3.96451e-07
8.33316e-06
3.14796e-07
8.35108e-06
4.11666e-07
8.35996e-06
4.80967e-07
8.35503e-06
3.10585e-07
8.37024e-06
2.89691e-07
8.37968e-06
3.4247e-07
8.36642e-06
2.58176e-07
8.35842e-06
1.62679e-07
8.36495e-06
1.69628e-07
8.36361e-06
1.95103e-07
8.35368e-06
1.68104e-07
8.34964e-06
1.37068e-07
1.32937e-07
8.35339e-06
8.72084e-06
8.16147e-08
8.71668e-06
4.0042e-07
8.71963e-06
3.00186e-07
8.75334e-06
3.64115e-07
8.73732e-06
2.54861e-07
8.72803e-06
3.06532e-07
8.73549e-06
3.88984e-07
8.73298e-06
3.1731e-07
8.74837e-06
3.9628e-07
8.75847e-06
4.70866e-07
8.75369e-06
3.15366e-07
8.76629e-06
2.77085e-07
8.77712e-06
3.31639e-07
8.76619e-06
2.69107e-07
8.75634e-06
1.72528e-07
8.76167e-06
1.64306e-07
8.76376e-06
1.93006e-07
8.75563e-06
1.76238e-07
8.75028e-06
1.42411e-07
1.30784e-07
8.75244e-06
9.13483e-06
6.44035e-08
9.13576e-06
3.9949e-07
9.13445e-06
3.01494e-07
9.16722e-06
3.31345e-07
9.15619e-06
2.65893e-07
9.14419e-06
3.18534e-07
9.15246e-06
3.80706e-07
9.15163e-06
3.18146e-07
9.16453e-06
3.8338e-07
9.175e-06
4.60393e-07
9.1704e-06
3.19962e-07
9.18054e-06
2.66954e-07
9.1926e-06
3.19573e-07
9.18455e-06
2.77154e-07
9.17375e-06
1.83328e-07
9.17714e-06
1.60919e-07
9.18206e-06
1.8809e-07
9.17638e-06
1.81911e-07
9.17037e-06
1.4842e-07
1.30205e-07
9.17095e-06
9.56839e-06
4.94748e-08
9.57476e-06
3.93116e-07
9.56972e-06
3.06534e-07
9.60008e-06
3.00991e-07
9.59473e-06
2.71236e-07
9.58076e-06
3.32507e-07
9.58831e-06
3.73161e-07
9.58942e-06
3.17033e-07
9.6003e-06
3.72505e-07
9.61054e-06
4.50151e-07
9.60626e-06
3.24245e-07
9.6141e-06
2.59114e-07
9.62733e-06
3.06337e-07
9.62246e-06
2.82021e-07
9.61158e-06
1.94212e-07
9.61265e-06
1.5985e-07
9.61935e-06
1.8139e-07
9.6167e-06
1.84565e-07
9.61064e-06
1.54478e-07
1.30996e-07
9.60985e-06
1.00225e-05
3.70805e-08
1.00344e-05
3.81206e-07
1.00265e-05
3.14503e-07
1.00529e-05
2.74566e-07
1.00536e-05
2.70487e-07
1.00387e-05
3.47463e-07
1.00439e-05
3.67978e-07
1.00469e-05
3.14001e-07
1.00569e-05
3.62488e-07
1.00668e-05
4.40268e-07
1.00629e-05
3.28137e-07
1.00687e-05
2.5329e-07
1.00827e-05
2.92355e-07
1.00811e-05
2.8368e-07
1.00707e-05
2.04539e-07
1.00695e-05
1.6111e-07
1.00767e-05
1.74128e-07
1.00773e-05
1.83965e-07
1.0072e-05
1.59859e-07
1.32941e-07
1.007e-05
1.04983e-05
2.73786e-08
1.05155e-05
3.64036e-07
1.05058e-05
3.24246e-07
1.05268e-05
2.53496e-07
1.05335e-05
2.6386e-07
1.05191e-05
3.6178e-07
1.05209e-05
3.66274e-07
1.05251e-05
3.09739e-07
1.05358e-05
3.51833e-07
1.05455e-05
4.30559e-07
1.05418e-05
3.31796e-07
1.05454e-05
2.4966e-07
1.05598e-05
2.77956e-07
1.05613e-05
2.82231e-07
1.05522e-05
2.1365e-07
1.05489e-05
1.6438e-07
1.05555e-05
1.67535e-07
1.05591e-05
1.80411e-07
1.05552e-05
1.63746e-07
1.35697e-07
1.05524e-05
1.0997e-05
2.04037e-08
1.10187e-05
3.42325e-07
1.10087e-05
3.34238e-07
1.10233e-05
2.38893e-07
1.10352e-05
2.51986e-07
1.10237e-05
3.73272e-07
1.10214e-05
3.68526e-07
1.10254e-05
3.05745e-07
1.10375e-05
3.39764e-07
1.10478e-05
4.2029e-07
1.10444e-05
3.35219e-07
1.10456e-05
2.4839e-07
1.10597e-05
2.63899e-07
1.10642e-05
2.7772e-07
1.10568e-05
2.21021e-07
1.10521e-05
1.69127e-07
1.10572e-05
1.62453e-07
1.10628e-05
1.74746e-07
1.10611e-05
1.65433e-07
1.38683e-07
1.10582e-05
1.15197e-05
1.60591e-08
1.15449e-05
3.1714e-07
1.15363e-05
3.42847e-07
1.1544e-05
2.31192e-07
1.15598e-05
2.36159e-07
1.1553e-05
3.8004e-07
1.15473e-05
3.74248e-07
1.15495e-05
3.03597e-07
1.15628e-05
3.26438e-07
1.15743e-05
4.08741e-07
1.15716e-05
3.37972e-07
1.15706e-05
2.49338e-07
1.15835e-05
2.51068e-07
1.15907e-05
2.70479e-07
1.15855e-05
2.26193e-07
1.15801e-05
1.74592e-07
1.15832e-05
1.59341e-07
1.15899e-05
1.68071e-07
1.15907e-05
1.64644e-07
1.41227e-07
1.15881e-05
1.20678e-05
1.40951e-08
1.20951e-05
2.89844e-07
1.20894e-05
3.48501e-07
1.20906e-05
2.30036e-07
1.21084e-05
2.1839e-07
1.21076e-05
3.8082e-07
1.20998e-05
3.81977e-07
1.2099e-05
3.04447e-07
1.21126e-05
3.12834e-07
1.2126e-05
3.95348e-07
1.21245e-05
3.395e-07
1.21217e-05
2.52072e-07
1.21326e-05
2.40208e-07
1.21419e-05
2.61131e-07
1.21393e-05
2.28826e-07
1.21339e-05
1.79987e-07
1.2135e-05
1.58222e-07
1.21416e-05
1.61461e-07
1.21447e-05
1.61613e-07
1.42644e-07
1.21432e-05
1.26426e-05
1.41316e-08
1.26706e-05
2.61821e-07
1.26691e-05
3.49963e-07
1.26647e-05
2.34433e-07
1.26822e-05
2.00938e-07
1.26879e-05
3.75128e-07
1.26799e-05
3.89927e-07
1.26758e-05
3.08584e-07
1.26882e-05
3.0036e-07
1.27036e-05
3.79984e-07
1.27039e-05
3.39199e-07
1.27001e-05
2.55909e-07
1.27085e-05
2.31809e-07
1.27191e-05
2.50481e-07
1.27191e-05
2.2884e-07
1.27145e-05
1.84606e-07
1.27141e-05
1.58656e-07
1.27197e-05
1.55795e-07
1.27243e-05
1.57006e-07
1.42508e-07
1.27245e-05
1.32454e-05
1.56857e-08
1.32729e-05
2.34326e-07
1.32763e-05
3.465e-07
1.32679e-05
2.42874e-07
1.32828e-05
1.86047e-07
1.32944e-05
3.63487e-07
1.32883e-05
3.96099e-07
1.32812e-05
3.15633e-07
1.32914e-05
2.90202e-07
1.33083e-05
3.63021e-07
1.33109e-05
3.36586e-07
1.33068e-05
2.60036e-07
1.33126e-05
2.26023e-07
1.33236e-05
2.39442e-07
1.33262e-05
2.26315e-07
1.33229e-05
1.87899e-07
1.33216e-05
1.59971e-07
1.33258e-05
1.51512e-07
1.33312e-05
1.51691e-07
1.40772e-07
1.33329e-05
1.38776e-05
1.82212e-08
1.39036e-05
2.0835e-07
1.39121e-05
3.38023e-07
1.39014e-05
2.536e-07
1.39119e-05
1.7549e-07
1.39283e-05
3.47103e-07
1.39255e-05
3.98889e-07
1.39165e-05
3.24689e-07
1.39237e-05
2.83002e-07
1.39414e-05
3.45284e-07
1.39466e-05
3.31327e-07
1.3943e-05
2.63658e-07
1.39465e-05
2.22584e-07
1.39569e-05
2.28974e-07
1.39617e-05
2.21587e-07
1.396e-05
1.8955e-07
1.39585e-05
1.61463e-07
1.39615e-05
1.48525e-07
1.39667e-05
1.46476e-07
1.37714e-07
1.39698e-05
1.45407e-05
2.1176e-08
1.45639e-05
1.85155e-07
1.45768e-05
3.25098e-07
1.4566e-05
2.64449e-07
1.45715e-05
1.69999e-07
1.45907e-05
3.27897e-07
1.45921e-05
3.97516e-07
1.45827e-05
3.34049e-07
1.45869e-05
2.78823e-07
1.46044e-05
3.27791e-07
1.46123e-05
3.23341e-07
1.46099e-05
2.66109e-07
1.46116e-05
2.20928e-07
1.46208e-05
2.19737e-07
1.46271e-05
2.1528e-07
1.46273e-05
1.89383e-07
1.46261e-05
1.62594e-07
1.46282e-05
1.46496e-07
1.46328e-05
1.41832e-07
1.33946e-07
1.46366e-05
1.5236e-05
2.40884e-08
1.52532e-05
1.67912e-07
1.52718e-05
3.06548e-07
1.52636e-05
2.72636e-07
1.52635e-05
1.70102e-07
1.52822e-05
3.09198e-07
1.52886e-05
3.91117e-07
1.52809e-05
3.41707e-07
1.52826e-05
2.77159e-07
1.52988e-05
3.11533e-07
1.53091e-05
3.13074e-07
1.53084e-05
2.66793e-07
1.5309e-05
2.20388e-07
1.53168e-05
2.11921e-07
1.53239e-05
2.08152e-07
1.53259e-05
1.87388e-07
1.53256e-05
1.62938e-07
1.5327e-05
1.45024e-07
1.53311e-05
1.37798e-07
1.29939e-07
1.53351e-05
1.59653e-05
2.61163e-08
1.59894e-05
1.43815e-07
1.60132e-05
2.82754e-07
1.59982e-05
2.87635e-07
1.5987e-05
1.813e-07
1.60041e-05
2.92099e-07
1.60167e-05
3.78522e-07
1.60124e-05
3.45983e-07
1.60124e-05
2.77153e-07
1.60269e-05
2.971e-07
1.60387e-05
3.01244e-07
1.60402e-05
2.65322e-07
1.60403e-05
2.2027e-07
1.60466e-05
2.05629e-07
1.6054e-05
2.00761e-07
1.60574e-05
1.83988e-07
1.60581e-05
1.62199e-07
1.60593e-05
1.43778e-07
1.60628e-05
1.3431e-07
1.25996e-07
1.60668e-05
1.67285e-05
2.82356e-08
1.67331e-05
1.39157e-07
1.67554e-05
2.60528e-07
1.67539e-05
2.89074e-07
1.67453e-05
1.8989e-07
1.67612e-05
2.7624e-07
1.67788e-05
3.609e-07
1.67784e-05
3.46391e-07
1.67778e-05
2.77801e-07
1.67901e-05
2.84799e-07
1.68026e-05
2.88656e-07
1.68062e-05
2.61736e-07
1.68067e-05
2.19761e-07
1.68117e-05
2.00689e-07
1.6819e-05
1.93448e-07
1.68235e-05
1.79456e-07
1.68254e-05
1.60325e-07
1.6827e-05
1.4223e-07
1.68299e-05
1.31322e-07
1.22091e-07
1.68338e-05
1.7529e-05
2.95558e-08
1.75398e-05
1.28399e-07
1.75573e-05
2.43025e-07
1.75544e-05
2.91954e-07
1.75438e-05
2.00493e-07
1.75561e-05
2.63989e-07
1.75765e-05
3.40486e-07
1.75803e-05
3.42537e-07
1.758e-05
2.78171e-07
1.75903e-05
2.74489e-07
1.76031e-05
2.75851e-07
1.76085e-05
2.5629e-07
1.76099e-05
2.18419e-07
1.7614e-05
1.96606e-07
1.76207e-05
1.86705e-07
1.7626e-05
1.74167e-07
1.76288e-05
1.57486e-07
1.76309e-05
1.40192e-07
1.76335e-05
1.28674e-07
1.18267e-07
1.76373e-05
1.83674e-05
3.04889e-08
1.83697e-05
1.26124e-07
1.83894e-05
2.23348e-07
1.83927e-05
2.88622e-07
1.83832e-05
2.10011e-07
1.83915e-05
2.55711e-07
1.8412e-05
3.1995e-07
1.84197e-05
3.34817e-07
1.84204e-05
2.77533e-07
1.8429e-05
2.65886e-07
1.84414e-05
2.6343e-07
1.84484e-05
2.49229e-07
1.84508e-05
2.16033e-07
1.84545e-05
1.92895e-07
1.84607e-05
1.80508e-07
1.84664e-05
1.68454e-07
1.84702e-05
1.53755e-07
1.84729e-05
1.37463e-07
1.84756e-05
1.25966e-07
1.14624e-07
1.84793e-05
1.92461e-05
3.07821e-08
1.92491e-05
1.23141e-07
1.92651e-05
2.07378e-07
1.92709e-05
2.82766e-07
1.92632e-05
2.17722e-07
1.92685e-05
2.50442e-07
1.92877e-05
3.00694e-07
1.92985e-05
3.24071e-07
1.93007e-05
2.75303e-07
1.93082e-05
2.58383e-07
1.932e-05
2.51635e-07
1.93284e-05
2.40851e-07
1.93319e-05
2.12457e-07
1.93356e-05
1.89266e-07
1.93414e-05
1.74702e-07
1.93472e-05
1.62651e-07
1.93515e-05
1.4944e-07