/*--------------------------------*- C++ -*----------------------------------*\
| =========                 |                                                 |
| \\      /  F ield         | OpenFOAM: The Open Source CFD Toolbox           |
|  \\    /   O peration     | Version:  2506                                  |
|   \\  /    A nd           | Website:  www.openfoam.com                      |
|    \\/     M anipulation  |                                                 |
\*---------------------------------------------------------------------------*/
FoamFile
{
    version     2.0;
    format      ascii;
    arch        "LSB;label=32;scalar=64";
    class       volVectorField;
    location    "9.15";
    object      U;
}
// * * * * * * * * * * * * * * * * * * * * * * * * * * * * * * * * * * * * * //

dimensions      [0 1 -1 0 0 0 0];

internalField   nonuniform List<vector> 
9600
(
(0.899939 0.00762469 0)
(1.15188 -0.00893609 0)
(0.7232 0.0203132 0)
(1.32795 0.0142297 0)
(0.711401 -0.015069 0)
(1.08283 -0.00274402 0)
(0.908238 0.0175535 0)
(1.15456 0.000646005 0)
(0.749867 0.0195609 0)
(1.22959 0.00577454 0)
(0.681914 0.00761633 0)
(1.22738 0.0240966 0)
(0.727248 0.00674804 0)
(1.14045 0.0133179 0)
(0.809093 -0.00418985 0)
(1.12713 0.00136595 0)
(0.842283 -0.00503201 0)
(1.12002 0.000441959 0)
(0.852542 0.000410169 0)
(1.11793 0.00373946 0)
(0.902829 0.00721395 0)
(1.14609 -0.00740194 0)
(0.726451 0.0191239 0)
(1.3166 0.0147613 0)
(0.734513 -0.0128815 0)
(1.0803 -0.004766 0)
(0.912379 0.0162629 0)
(1.15083 0.00338526 0)
(0.75706 0.0186335 0)
(1.21716 0.00746977 0)
(0.69981 0.00737698 0)
(1.20602 0.0238171 0)
(0.780326 0.0080285 0)
(1.09987 0.0122493 0)
(0.87443 -0.00409484 0)
(1.07443 0.000634661 0)
(0.92188 -0.00465552 0)
(1.04604 -0.000172953 0)
(0.957598 0.001265 0)
(1.00738 0.00280394 0)
(0.909073 0.00681954 0)
(1.13626 -0.00594777 0)
(0.736393 0.017314 0)
(1.2932 0.0150574 0)
(0.77549 -0.0112513 0)
(1.06945 -0.00624905 0)
(0.923783 0.0153541 0)
(1.14014 0.0052177 0)
(0.780637 0.01723 0)
(1.18871 0.00869323 0)
(0.747994 0.00691015 0)
(1.15278 0.0229831 0)
(0.86039 0.00971783 0)
(1.04054 0.0105998 0)
(0.935194 -0.00365484 0)
(1.02034 -0.000427901 0)
(0.969448 -0.00409513 0)
(1.00199 -0.000976941 0)
(0.987084 0.00194492 0)
(0.989575 0.00337478 0)
(0.918428 0.00647844 0)
(1.12312 -0.00458762 0)
(0.755312 0.0157568 0)
(1.25688 0.0149374 0)
(0.831799 -0.00958693 0)
(1.04738 -0.00736413 0)
(0.941925 0.01455 0)
(1.1202 0.00687621 0)
(0.82235 0.0163399 0)
(1.14587 0.00931687 0)
(0.817655 0.00715049 0)
(1.08324 0.0214189 0)
(0.927357 0.0113297 0)
(0.997154 0.00948566 0)
(0.964028 -0.00341151 0)
(0.992418 -0.00112966 0)
(0.980315 -0.00373837 0)
(0.987874 -0.00135407 0)
(0.986056 0.00218943 0)
(0.98685 0.00392939 0)
(0.93006 0.00615507 0)
(1.10711 -0.00328939 0)
(0.784461 0.0145587 0)
(1.20903 0.0144472 0)
(0.893854 -0.00787874 0)
(1.01774 -0.00815702 0)
(0.96129 0.0136507 0)
(1.09312 0.00824204 0)
(0.873966 0.0159745 0)
(1.09758 0.00949898 0)
(0.885171 0.00804664 0)
(1.02413 0.0198321 0)
(0.965345 0.012459 0)
(0.980371 0.00906499 0)
(0.973417 -0.00335474 0)
(0.982857 -0.00155293 0)
(0.981296 -0.00352317 0)
(0.983735 -0.00158137 0)
(0.984116 0.00236861 0)
(0.984051 0.00431818 0)
(0.942716 0.00585675 0)
(1.0891 -0.00211383 0)
(0.822314 0.0136604 0)
(1.1554 0.0135825 0)
(0.949313 -0.0062324 0)
(0.989667 -0.00857329 0)
(0.974951 0.0127391 0)
(1.06464 0.00917732 0)
(0.922033 0.015953 0)
(1.05522 0.00946298 0)
(0.933669 0.00912676 0)
(0.989653 0.0187262 0)
(0.980876 0.0129669 0)
(0.980034 0.00898886 0)
(0.978546 -0.00322821 0)
(0.980976 -0.00189582 0)
(0.982462 -0.00341937 0)
(0.983689 -0.00174235 0)
(0.984466 0.00249017 0)
(0.984164 0.00462283 0)
(0.954989 0.00559928 0)
(1.0706 -0.00114087 0)
(0.864069 0.0130761 0)
(1.10474 0.0124795 0)
(0.989651 -0.00477223 0)
(0.971629 -0.00858779 0)
(0.979525 0.0118786 0)
(1.04056 0.00963675 0)
(0.956513 0.0161384 0)
(1.02583 0.00943349 0)
(0.96106 0.0100597 0)
(0.975948 0.0180933 0)
(0.98554 0.0130005 0)
(0.984654 0.00895842 0)
(0.984281 -0.00300186 0)
(0.982768 -0.00217464 0)
(0.984355 -0.00336376 0)
(0.985548 -0.00185099 0)
(0.986076 0.00251558 0)
(0.986159 0.00489569 0)
(0.965737 0.0053907 0)
(1.05339 -0.000410224 0)
(0.903715 0.0127948 0)
(1.06467 0.0113346 0)
(1.01304 -0.00358319 0)
(0.966075 -0.0082412 0)
(0.977081 0.0111001 0)
(1.02356 0.00968912 0)
(0.975208 0.0164121 0)
(1.00989 0.00948656 0)
(0.974112 0.0107717 0)
(0.97285 0.0177465 0)
(0.986931 0.0127841 0)
(0.989222 0.00883253 0)
(0.990133 -0.00275435 0)
(0.986692 -0.0023507 0)
(0.986942 -0.00328064 0)
(0.987789 -0.00194512 0)
(0.988063 0.00248407 0)
(0.988454 0.00516251 0)
(0.974405 0.00523239 0)
(1.03879 8.21098e-05 0)
(0.936829 0.012727 0)
(1.03825 0.0103094 0)
(1.02271 -0.00268706 0)
(0.969463 -0.00762256 0)
(0.972817 0.0104469 0)
(1.0131 0.00947755 0)
(0.982206 0.0166765 0)
(1.00367 0.00957822 0)
(0.980524 0.011335 0)
(0.973793 0.017536 0)
(0.988468 0.012454 0)
(0.99316 0.0085791 0)
(0.99544 -0.00253577 0)
(0.991527 -0.0024158 0)
(0.99033 -0.00315456 0)
(0.990183 -0.0019864 0)
(0.99001 0.00246797 0)
(0.990465 0.00541074 0)
(0.981056 0.00511981 0)
(1.02719 0.000368867 0)
(0.961841 0.0127634 0)
(1.02393 0.0094847 0)
(1.02377 -0.00203863 0)
(0.976282 -0.00686517 0)
(0.971145 0.00994598 0)
(1.00734 0.00914934 0)
(0.983693 0.016878 0)
(1.00262 0.00963963 0)
(0.985044 0.0118173 0)
(0.976717 0.0173891 0)
(0.991372 0.012059 0)
(0.997107 0.00823775 0)
(1.00022 -0.00234974 0)
(0.996424 -0.00241341 0)
(0.994197 -0.0029878 0)
(0.992922 -0.00191738 0)
(0.992008 0.00249802 0)
(0.992206 0.00559958 0)
(0.986104 0.00504453 0)
(1.0183 0.000502985 0)
(0.97945 0.0128191 0)
(1.01785 0.00887283 0)
(1.02077 -0.00156261 0)
(0.98262 -0.00609499 0)
(0.973516 0.0095859 0)
(1.00457 0.0088085 0)
(0.984458 0.0170045 0)
(1.00358 0.00963629 0)
(0.989441 0.0122343 0)
(0.981239 0.0172691 0)
(0.99568 0.0116226 0)
(1.00137 0.00787852 0)
(1.00454 -0.00219382 0)
(1.00088 -0.00237757 0)
(0.998003 -0.00275927 0)
(0.995882 -0.00174426 0)
(0.994189 0.00256363 0)
(0.993861 0.00572741 0)
(0.990001 0.00499858 0)
(1.01155 0.000533386 0)
(0.991316 0.0128419 0)
(1.0162 0.00844881 0)
(1.01672 -0.00118391 0)
(0.987064 -0.00540113 0)
(0.978904 0.00932344 0)
(1.00367 0.00850398 0)
(0.986569 0.0170672 0)
(1.00509 0.00957962 0)
(0.993926 0.0125698 0)
(0.986874 0.0171478 0)
(1.00075 0.0111754 0)
(1.0057 0.00755223 0)
(1.00827 -0.00205883 0)
(1.00453 -0.00229641 0)
(1.00127 -0.00248558 0)
(0.998667 -0.00149801 0)
(0.996424 0.00267651 0)
(0.995509 0.00585313 0)
(0.993069 0.00497486 0)
(1.00647 0.000495205 0)
(0.999044 0.0128091 0)
(1.01632 0.00817503 0)
(1.01312 -0.000849247 0)
(0.989788 -0.00482267 0)
(0.985431 0.00911067 0)
(1.00385 0.00824549 0)
(0.989975 0.0170828 0)
(1.00676 0.00950531 0)
(0.998252 0.0127987 0)
(0.99281 0.0170168 0)
(1.00576 0.0107424 0)
(1.00959 0.00728652 0)
(1.01119 -0.00190943 0)
(1.00718 -0.0021716 0)
(1.00369 -0.00218995 0)
(1.0009 -0.0012111 0)
(0.998417 0.00287467 0)
(0.997054 0.00602197 0)
(0.995486 0.00496617 0)
(1.00277 0.000417687 0)
(1.0038 0.0127184 0)
(1.01677 0.00801036 0)
(1.01056 -0.000532701 0)
(0.991442 -0.00436039 0)
(0.991556 0.00891112 0)
(1.00443 0.00802701 0)
(0.993776 0.0170609 0)
(1.00841 0.00944415 0)
(1.00211 0.0129101 0)
(0.998239 0.0168805 0)
(1.01009 0.0103363 0)
(1.01265 0.00710334 0)
(1.01322 -0.00172576 0)
(1.00882 -0.00201001 0)
(1.00517 -0.00186659 0)
(1.00238 -0.00092784 0)
(0.999923 0.00315531 0)
(0.998333 0.00621882 0)
(0.997352 0.00496586 0)
(1.00022 0.000323878 0)
(1.00638 0.0125777 0)
(1.01695 0.00791616 0)
(1.00908 -0.00022546 0)
(0.992561 -0.00399137 0)
(0.996457 0.00870831 0)
(1.00488 0.00783946 0)
(0.997126 0.0170043 0)
(1.00982 0.00940631 0)
(1.00521 0.0129174 0)
(1.0026 0.0167426 0)
(1.01343 0.00996344 0)
(1.01476 0.00701024 0)
(1.01443 -0.00149608 0)
(1.00964 -0.00181892 0)
(1.00584 -0.00150377 0)
(1.00316 -0.00066109 0)
(1.00088 0.00346867 0)
(0.999249 0.00642309 0)
(0.998745 0.004968 0)
(0.998599 0.000231532 0)
(1.00742 0.0123988 0)
(1.01671 0.0078584 0)
(1.00849 7.0699e-05 0)
(0.993446 -0.00368391 0)
(0.999933 0.00850008 0)
(1.00489 0.00767665 0)
(0.999551 0.0169109 0)
(1.01074 0.00939522 0)
(1.00735 0.0128352 0)
(1.00564 0.0166123 0)
(1.01568 0.00962492 0)
(1.01601 0.00698987 0)
(1.01504 -0.00120934 0)
(1.00995 -0.00161083 0)
(1.00599 -0.00109328 0)
(1.00343 -0.000419588 0)
(1.0014 0.00375491 0)
(0.999844 0.00663563 0)
(0.99974 0.00496767 0)
(0.997681 0.000153823 0)
(1.00746 0.0121933 0)
(1.01613 0.00781114 0)
(1.00848 0.000347797 0)
(0.994225 -0.00340449 0)
(1.00217 0.00829241 0)
(1.00447 0.00753723 0)
(1.00094 0.0167751 0)
(1.01111 0.00941801 0)
(1.00857 0.0126709 0)
(1.00746 0.0164951 0)
(1.01697 0.00931488 0)
(1.0166 0.00701551 0)
(1.01526 -0.000870799 0)
(1.01001 -0.00139095 0)
(1.00589 -0.000634706 0)
(1.00346 -0.00019113 0)
(1.00168 0.00399018 0)
(1.00025 0.00687129 0)
(1.00041 0.004961 0)
(0.997264 9.90362e-05 0)
(1.00699 0.0119698 0)
(1.01534 0.00775941 0)
(1.00878 0.000598538 0)
(0.994929 -0.00312736 0)
(1.0035 0.00809347 0)
(1.00382 0.00742263 0)
(1.00144 0.0165973 0)
(1.011 0.0094702 0)
(1.0091 0.0124455 0)
(1.00831 0.0163748 0)
(1.01753 0.00902955 0)
(1.01673 0.00706849 0)
(1.01522 -0.000479461 0)
(1.01001 -0.00119018 0)
(1.00573 -0.000125224 0)
(1.00346 3.46112e-05 0)
(1.00189 0.00416043 0)
(1.00059 0.00713457 0)
(1.00082 0.00494564 0)
(0.997183 6.97504e-05 0)
(1.00632 0.0117341 0)
(1.01447 0.00769525 0)
(1.00919 0.000819503 0)
(0.995547 -0.00283449 0)
(1.00421 0.00790391 0)
(1.00316 0.00733743 0)
(1.00137 0.0163807 0)
(1.01062 0.00954288 0)
(1.00922 0.0121729 0)
(1.00854 0.0162515 0)
(1.01756 0.00875025 0)
(1.01659 0.00712741 0)
(1.01499 -2.35658e-05 0)
(1.01002 -0.00101733 0)
(1.00561 0.000414755 0)
(1.00353 0.000283416 0)
(1.00214 0.00424298 0)
(1.00094 0.00740546 0)
(1.00105 0.00491982 0)
(0.997311 6.72439e-05 0)
(1.00567 0.0114889 0)
(1.01361 0.00761771 0)
(1.0096 0.00100738 0)
(0.996071 -0.00251284 0)
(1.00453 0.00772218 0)
(1.00262 0.00727846 0)
(1.00103 0.0161296 0)
(1.01017 0.0096333 0)
(1.00918 0.0118594 0)
(1.00843 0.0161241 0)
(1.01721 0.00847879 0)
(1.01631 0.00716578 0)
(1.01461 0.000486128 0)
(1.01007 -0.000861627 0)
(1.00553 0.000949914 0)
(1.00369 0.000599237 0)
(1.00244 0.00423959 0)
(1.00132 0.00765999 0)
(1.00115 0.00488252 0)
(0.997551 9.07966e-05 0)
(1.00511 0.0112353 0)
(1.01283 0.00752997 0)
(1.00994 0.00116067 0)
(0.996511 -0.00215666 0)
(1.00458 0.00754489 0)
(1.00228 0.00724275 0)
(1.0006 0.0158483 0)
(1.00977 0.00973639 0)
(1.0091 0.0115149 0)
(1.00816 0.0159864 0)
(1.01661 0.00824171 0)
(1.01594 0.00715461 0)
(1.01411 0.00102953 0)
(1.01014 -0.00071522 0)
(1.00549 0.00144702 0)
(1.00391 0.00099606 0)
(1.00277 0.00417285 0)
(1.00174 0.00787482 0)
(1.00118 0.00483299 0)
(0.997833 0.00013918 0)
(1.00468 0.0109716 0)
(1.01217 0.00743764 0)
(1.01015 0.0012833 0)
(0.996893 -0.00176723 0)
(1.0045 0.00736797 0)
(1.00213 0.00722644 0)
(1.0002 0.0155402 0)
(1.00949 0.00984753 0)
(1.00903 0.0111571 0)
(1.00788 0.0158382 0)
(1.01586 0.00803776 0)
(1.01556 0.0070818 0)
(1.01352 0.00160755 0)
(1.01024 -0.000566365 0)
(1.00548 0.001879 0)
(1.00415 0.00147883 0)
(1.00312 0.00407071 0)
(1.00219 0.00801988 0)
(1.00116 0.00477119 0)
(0.998128 0.000211016 0)
(1.00437 0.0106955 0)
(1.01167 0.00734837 0)
(1.01019 0.00137279 0)
(0.997245 -0.0013417 0)
(1.00436 0.00718425 0)
(1.00217 0.0072237 0)
(0.999851 0.0152121 0)
(1.00932 0.00995896 0)
(1.00898 0.0108055 0)
(1.00766 0.0156762 0)
(1.01505 0.00786948 0)
(1.01521 0.00695445 0)
(1.01289 0.00220679 0)
(1.01032 -0.000400423 0)
(1.00551 0.00222218 0)
(1.00439 0.00203317 0)
(1.00348 0.00396852 0)
(1.00267 0.00806413 0)
(1.00111 0.00469639 0)
(0.998436 0.000305376 0)
(1.00414 0.0104032 0)
(1.01132 0.00726996 0)
(1.01006 0.00142946 0)
(0.99759 -0.000886056 0)
(1.00422 0.00699641 0)
(1.00238 0.00722832 0)
(0.999567 0.0148701 0)
(1.00924 0.0100681 0)
(1.00894 0.0104579 0)
(1.00752 0.015508 0)
(1.01426 0.00775001 0)
(1.01491 0.00677247 0)
(1.01226 0.00280999 0)
(1.01038 -0.000199592 0)
(1.00558 0.00246955 0)
(1.00461 0.00263333 0)
(1.00385 0.00391166 0)
(1.0032 0.00798453 0)
(1.00102 0.00460839 0)
(0.998771 0.000420995 0)
(1.00395 0.0100914 0)
(1.01112 0.00720571 0)
(1.0098 0.0014611 0)
(0.997937 -0.000407189 0)
(1.0041 0.00680552 0)
(1.00271 0.00723469 0)
(0.999347 0.0145241 0)
(1.0092 0.0101708 0)
(1.00894 0.0101193 0)
(1.00744 0.015323 0)
(1.01354 0.0076838 0)
(1.01464 0.00654518 0)
(1.01169 0.00340276 0)
(1.0104 6.10082e-05 0)
(1.0057 0.00262946 0)
(1.00479 0.0032507 0)
(1.0042 0.00394059 0)
(1.00376 0.00777053 0)
(1.00088 0.00450659 0)
(0.999139 0.000558105 0)
(1.00377 0.00975755 0)
(1.011 0.00716025 0)
(1.00944 0.00146869 0)
(0.998281 9.04198e-05 0)
(1.004 0.0066132 0)
(1.0031 0.00723706 0)
(0.999191 0.0141824 0)
(1.00916 0.0102533 0)
(1.00897 0.00980322 0)
(1.00739 0.0151127 0)
(1.0129 0.00767164 0)
(1.01442 0.00629516 0)
(1.01118 0.00397343 0)
(1.01036 0.00039211 0)
(1.00588 0.00270674 0)
(1.00493 0.00385055 0)
(1.00453 0.00408816 0)
(1.00435 0.00743855 0)
(1.00071 0.00438994 0)
(0.999526 0.000715901 0)
(1.00361 0.0094009 0)
(1.01092 0.00713773 0)
(1.00903 0.00145244 0)
(0.998614 0.000599947 0)
(1.00391 0.00642386 0)
(1.00349 0.00722637 0)
(0.999097 0.0138557 0)
(1.00906 0.0103142 0)
(1.00904 0.00949762 0)
(1.00733 0.01488 0)
(1.01234 0.00771434 0)
(1.01421 0.00602079 0)
(1.01076 0.00450718 0)
(1.01027 0.000791039 0)
(1.00613 0.00271107 0)
(1.00507 0.00439036 0)
(1.00483 0.00437352 0)
(1.00493 0.00704579 0)
(1.00054 0.00425928 0)
(0.999901 0.000891646 0)
(1.00348 0.00902573 0)
(1.01085 0.00712926 0)
(1.00861 0.00142314 0)
(0.998923 0.00110948 0)
(1.00384 0.0062432 0)
(1.00386 0.00719897 0)
(0.999062 0.0135484 0)
(1.00889 0.0103592 0)
(1.00916 0.00919369 0)
(1.00725 0.0146236 0)
(1.01184 0.00780666 0)
(1.01402 0.00572237 0)
(1.01043 0.00498936 0)
(1.01012 0.00127184 0)
(1.00644 0.00266957 0)
(1.00523 0.00482939 0)
(1.00507 0.0047841 0)
(1.00549 0.00666996 0)
(1.00038 0.00411305 0)
(1.00023 0.00108854 0)
(1.00338 0.00862668 0)
(1.01074 0.00714287 0)
(1.00821 0.00138252 0)
(0.999202 0.00160745 0)
(1.0038 0.00608854 0)
(1.00419 0.00713925 0)
(0.99908 0.0132577 0)
(1.00866 0.010392 0)
(1.00932 0.00889509 0)
(1.00715 0.0143428 0)
(1.01137 0.00794493 0)
(1.01386 0.00542111 0)
(1.01018 0.00540069 0)
(1.00993 0.00183379 0)
(1.00678 0.00261291 0)
(1.00543 0.00513572 0)
(1.00527 0.00528182 0)
(1.006 0.00639773 0)
(1.00025 0.0039531 0)
(1.00049 0.00130168 0)
(1.00334 0.00820954 0)
(1.01059 0.00717619 0)
(1.00785 0.00132957 0)
(0.999447 0.00209783 0)
(1.00377 0.00595959 0)
(1.00447 0.00703967 0)
(0.999142 0.0129887 0)
(1.00837 0.0104199 0)
(1.00951 0.00860605 0)
(1.00706 0.0140317 0)
(1.01091 0.00813264 0)
(1.01371 0.0051349 0)
(1.01001 0.00572827 0)
(1.00971 0.0024632 0)
(1.00711 0.00258291 0)
(1.0057 0.00529767 0)
(1.00544 0.00581254 0)
(1.00643 0.00631246 0)
(1.00018 0.00377824 0)
(1.00067 0.00153152 0)
(1.00336 0.00777971 0)
(1.01041 0.0072118 0)
(1.00753 0.00128181 0)
(0.999658 0.00256834 0)
(1.00377 0.00586884 0)
(1.00474 0.00690149 0)
(0.999239 0.0127343 0)
(1.00805 0.0104473 0)
(1.0097 0.00832112 0)
(1.00698 0.0136873 0)
(1.01045 0.00836386 0)
(1.01359 0.00487058 0)
(1.00991 0.005962 0)
(1.00946 0.00315194 0)
(1.00742 0.00262307 0)
(1.00604 0.00531939 0)
(1.0056 0.0062895 0)
(1.00675 0.00643091 0)
(1.00015 0.00359209 0)
(1.00077 0.00177418 0)
(1.00341 0.00733471 0)
(1.01019 0.00725483 0)
(1.00725 0.00123864 0)
(0.999839 0.00299989 0)
(1.00379 0.00582892 0)
(1.00499 0.00672358 0)
(0.999364 0.0124759 0)
(1.00772 0.0104784 0)
(1.00989 0.00803284 0)
(1.00694 0.0133096 0)
(1.00996 0.00863364 0)
(1.01346 0.00464818 0)
(1.00988 0.00608562 0)
(1.00919 0.00387711 0)
(1.00766 0.00276392 0)
(1.00645 0.00523294 0)
(1.00578 0.00664348 0)
(1.00696 0.00671113 0)
(1.00016 0.00339342 0)
(1.00081 0.00202907 0)
(1.00349 0.00688333 0)
(1.00994 0.00729327 0)
(1.00699 0.00120759 0)
(0.999995 0.00338935 0)
(1.00381 0.00584585 0)
(1.00523 0.00652028 0)
(0.999514 0.012208 0)
(1.00739 0.0105267 0)
(1.01005 0.00774492 0)
(1.00694 0.0128881 0)
(1.00944 0.00893351 0)
(1.01333 0.00449893 0)
(1.00992 0.0060929 0)
(1.00893 0.00460236 0)
(1.00781 0.00302007 0)
(1.00689 0.00509081 0)
(1.00602 0.00684867 0)
(1.0071 0.00706842 0)
(1.00019 0.00318328 0)
(1.00082 0.00229446 0)
(1.00357 0.00643022 0)
(1.00968 0.00731821 0)
(1.00675 0.00120486 0)
(1.00013 0.00372154 0)
(1.00383 0.00591908 0)
(1.00547 0.00630605 0)
(0.99969 0.011923 0)
(1.00706 0.010594 0)
(1.0102 0.00746751 0)
(1.00699 0.0124182 0)
(1.00889 0.00924423 0)
(1.01316 0.0044435 0)
(1.01002 0.00598671 0)
(1.00869 0.00528561 0)
(1.00787 0.00339004 0)
(1.00733 0.00494629 0)
(1.00631 0.00691386 0)
(1.0072 0.007394 0)
(1.00023 0.00296443 0)
(1.0008 0.00256546 0)
(1.00365 0.00598077 0)
(1.0094 0.0073203 0)
(1.00653 0.00124179 0)
(1.00026 0.00397724 0)
(1.00384 0.00603529 0)
(1.00571 0.00609326 0)
(0.999893 0.0116045 0)
(1.00674 0.0106757 0)
(1.01031 0.0072284 0)
(1.00709 0.0118965 0)
(1.00834 0.0095474 0)
(1.01293 0.00449879 0)
(1.01018 0.00579455 0)
(1.00849 0.00589053 0)
(1.00784 0.00386386 0)
(1.00775 0.00483707 0)
(1.00667 0.00688295 0)
(1.00732 0.00762375 0)
(1.00027 0.00273657 0)
(1.00077 0.00283829 0)
(1.00371 0.00554902 0)
(1.00912 0.00727974 0)
(1.0063 0.0013315 0)
(1.00039 0.00415656 0)
(1.00385 0.00618633 0)
(1.00593 0.00589845 0)
(1.00013 0.0112453 0)
(1.00643 0.0107653 0)
(1.01038 0.00704683 0)
(1.00724 0.0113277 0)
(1.0078 0.009825 0)
(1.01264 0.00467113 0)
(1.01038 0.00555003 0)
(1.00835 0.00638085 0)
(1.00773 0.00442246 0)
(1.00811 0.00477731 0)
(1.00708 0.00678819 0)
(1.00746 0.00775607 0)
(1.00032 0.0025031 0)
(1.00072 0.00310745 0)
(1.00376 0.00514146 0)
(1.00884 0.00719155 0)
(1.00608 0.00147509 0)
(1.00052 0.0042659 0)
(1.00384 0.00635457 0)
(1.00614 0.00573378 0)
(1.00039 0.0108478 0)
(1.00612 0.0108444 0)
(1.01041 0.0069266 0)
(1.00743 0.0107252 0)
(1.00728 0.01005 0)
(1.01229 0.0049577 0)
(1.01062 0.00528503 0)
(1.0083 0.00672296 0)
(1.00755 0.00504808 0)
(1.0084 0.00479714 0)
(1.00753 0.00664108 0)
(1.00766 0.00782575 0)
(1.00036 0.00226398 0)
(1.00067 0.00337007 0)
(1.00378 0.00476518 0)
(1.00856 0.00704058 0)
(1.00585 0.00169376 0)
(1.00065 0.00432006 0)
(1.00382 0.0065148 0)
(1.00632 0.00561739 0)
(1.00068 0.0104166 0)
(1.00583 0.0108957 0)
(1.01039 0.006874 0)
(1.00765 0.0101111 0)
(1.00682 0.0101887 0)
(1.01186 0.0053412 0)
(1.01086 0.00504789 0)
(1.00834 0.00690198 0)
(1.00734 0.00570059 0)
(1.0086 0.00492998 0)
(1.008 0.00644014 0)
(1.00791 0.00783992 0)
(1.00039 0.00202393 0)
(1.0006 0.00361696 0)
(1.00379 0.00442909 0)
(1.00828 0.00682245 0)
(1.00561 0.00197559 0)
(1.00078 0.00433712 0)
(1.0038 0.0066558 0)
(1.00647 0.00556206 0)
(1.00098 0.00995934 0)
(1.00555 0.0109077 0)
(1.01032 0.00688299 0)
(1.00791 0.00951034 0)
(1.00642 0.0102323 0)
(1.01137 0.00579176 0)
(1.01108 0.00488694 0)
(1.00849 0.00693226 0)
(1.00713 0.0063177 0)
(1.00868 0.00519065 0)
(1.00846 0.00620984 0)
(1.00824 0.00775371 0)
(1.00043 0.00178457 0)
(1.00052 0.00384198 0)
(1.00376 0.00414483 0)
(1.00802 0.00653552 0)
(1.00537 0.00229142 0)
(1.0009 0.00434312 0)
(1.00376 0.00675032 0)
(1.00659 0.0055627 0)
(1.00131 0.00950175 0)
(1.00529 0.0108769 0)
(1.0102 0.00693997 0)
(1.00818 0.00894244 0)
(1.0061 0.0101923 0)
(1.01083 0.00627273 0)
(1.01125 0.0048147 0)
(1.00874 0.00683557 0)
(1.00695 0.00684384 0)
(1.00864 0.00557155 0)
(1.00888 0.00603241 0)
(1.00864 0.00755347 0)
(1.00046 0.00154947 0)
(1.00043 0.00403837 0)
(1.00371 0.00391713 0)
(1.00776 0.00618268 0)
(1.00512 0.00263448 0)
(1.00101 0.00435495 0)
(1.00373 0.00678258 0)
(1.00667 0.00561059 0)
(1.00164 0.00905774 0)
(1.00506 0.0107826 0)
(1.01004 0.00703892 0)
(1.00845 0.00842373 0)
(1.00587 0.0100687 0)
(1.01026 0.00675064 0)
(1.01134 0.00484049 0)
(1.00907 0.00665551 0)
(1.00685 0.00725323 0)
(1.0085 0.00602868 0)
(1.0092 0.00596534 0)
(1.0091 0.00726765 0)
(1.00048 0.00132182 0)
(1.00034 0.00420154 0)
(1.00362 0.00374441 0)
(1.00752 0.0057848 0)
(1.00488 0.00296642 0)
(1.0011 0.00439588 0)
(1.0037 0.00675918 0)
(1.00673 0.00568121 0)
(1.00197 0.00864679 0)
(1.00485 0.0106248 0)
(1.00983 0.007155 0)
(1.00872 0.00796051 0)
(1.00572 0.00986633 0)
(1.00968 0.00720671 0)
(1.01135 0.00497054 0)
(1.00945 0.00642757 0)
(1.00684 0.0075281 0)
(1.0083 0.00650618 0)
(1.0094 0.00601796 0)
(1.00958 0.00695956 0)
(1.0005 0.00110461 0)
(1.00023 0.00432076 0)
(1.0035 0.00363625 0)
(1.00728 0.00535042 0)
(1.00465 0.00327519 0)
(1.00117 0.00447727 0)
(1.00367 0.00666885 0)
(1.00676 0.0057533 0)
(1.0023 0.00829079 0)
(1.00468 0.0104261 0)
(1.00958 0.00726146 0)
(1.00897 0.0075683 0)
(1.00568 0.00961903 0)
(1.00912 0.00762229 0)
(1.01127 0.00519045 0)
(1.00986 0.00617949 0)
(1.00694 0.00765937 0)
(1.00807 0.00696968 0)
(1.00946 0.00617767 0)
(1.01001 0.00670206 0)
(1.00051 0.000903565 0)
(1.00013 0.0043919 0)
(1.00334 0.00358223 0)
(1.00706 0.00490153 0)
(1.00443 0.0035356 0)
(1.00121 0.00461359 0)
(1.00363 0.00653369 0)
(1.00677 0.00580672 0)
(1.00262 0.00799157 0)
(1.00453 0.0102061 0)
(1.00929 0.00734495 0)
(1.0092 0.00723198 0)
(1.00572 0.00934755 0)
(1.00858 0.00798356 0)
(1.01108 0.00548595 0)
(1.01026 0.00595458 0)
(1.00716 0.00764569 0)
(1.00784 0.00738432 0)
(1.0094 0.00641671 0)
(1.01036 0.00653542 0)
(1.00052 0.000719932 0)
(1.00002 0.0044096 0)
(1.00314 0.0035801 0)
(1.00684 0.00446515 0)
(1.00424 0.00372375 0)
(1.00122 0.00480544 0)
(1.00358 0.00638052 0)
(1.00677 0.00582829 0)
(1.00293 0.00774345 0)
(1.00441 0.00998974 0)
(1.00898 0.00742332 0)
(1.0094 0.00693484 0)
(1.00584 0.00904587 0)
(1.0081 0.00827742 0)
(1.01079 0.0058304 0)
(1.0106 0.0057814 0)
(1.00749 0.00749079 0)
(1.00767 0.00770485 0)
(1.00922 0.00670873 0)
(1.01058 0.0064694 0)
(1.00052 0.000557472 0)
(0.999925 0.0043682 0)
(1.0029 0.00362949 0)
(1.00662 0.00405028 0)
(1.00408 0.00383696 0)
(1.00121 0.00503101 0)
(1.0035 0.00623695 0)
(1.00676 0.00580471 0)
(1.00322 0.00753112 0)
(1.0043 0.00978807 0)
(1.00864 0.00750874 0)
(1.00955 0.00668229 0)
(1.00604 0.00870976 0)
(1.00768 0.00849687 0)
(1.01041 0.00620298 0)
(1.01087 0.00568742 0)
(1.0079 0.00723088 0)
(1.00758 0.00789366 0)
(1.00897 0.00702672 0)
(1.01066 0.00648888 0)
(1.00052 0.000420943 0)
(0.999835 0.00426428 0)
(1.00263 0.00371519 0)
(1.00639 0.00367852 0)
(1.00396 0.00386514 0)
(1.00117 0.0052734 0)
(1.0034 0.0061318 0)
(1.00675 0.00572294 0)
(1.00352 0.007331 0)
(1.00421 0.00960422 0)
(1.00827 0.00760384 0)
(1.00966 0.00648409 0)
(1.0063 0.0083326 0)
(1.00734 0.00861824 0)
(1.00998 0.00657179 0)
(1.01101 0.00568392 0)
(1.00837 0.00691898 0)
(1.00761 0.00792807 0)
(1.00868 0.00733436 0)
(1.01061 0.00658015 0)
(1.00051 0.000310843 0)
(0.999759 0.004095 0)
(1.00234 0.00383262 0)
(1.00614 0.00336915 0)
(1.00387 0.00379185 0)
(1.00113 0.00551641 0)
(1.00327 0.00608824 0)
(1.00672 0.00561677 0)
(1.00383 0.00711232 0)
(1.00415 0.00942259 0)
(1.00787 0.00771478 0)
(1.0097 0.00635377 0)
(1.00661 0.00791935 0)
(1.0071 0.00862736 0)
(1.00951 0.00691294 0)
(1.01104 0.0057702 0)
(1.00884 0.00661263 0)
(1.00778 0.0078099 0)
(1.00842 0.00757911 0)
(1.01044 0.00673262 0)
(1.0005 0.000228862 0)
(0.999702 0.00387152 0)
(1.00203 0.00395547 0)
(1.00587 0.00314362 0)
(1.00383 0.00362553 0)
(1.00109 0.00572337 0)
(1.0031 0.00612378 0)
(1.00666 0.00552448 0)
(1.00414 0.0068583 0)
(1.00412 0.00922199 0)
(1.00745 0.0078265 0)
(1.00967 0.0062941 0)
(1.00694 0.00749719 0)
(1.00696 0.00852871 0)
(1.00903 0.00720691 0)
(1.01094 0.00592849 0)
(1.00927 0.0063574 0)
(1.00806 0.00757355 0)
(1.00822 0.0077186 0)
(1.01018 0.00692873 0)
(1.00048 0.000173965 0)
(0.999666 0.00360221 0)
(1.00172 0.00406893 0)
(1.00557 0.00301083 0)
(1.00382 0.00340644 0)
(1.00108 0.00585417 0)
(1.0029 0.0062298 0)
(1.00656 0.00547252 0)
(1.00445 0.00656898 0)
(1.00414 0.00898537 0)
(1.00704 0.0079238 0)
(1.00955 0.00630304 0)
(1.00727 0.00710246 0)
(1.00693 0.00832721 0)
(1.00859 0.00742454 0)
(1.01074 0.00613401 0)
(1.00961 0.00618375 0)
(1.00842 0.0072658 0)
(1.00813 0.00772537 0)
(1.00988 0.00711427 0)
(1.00046 0.000145478 0)
(0.999654 0.00330241 0)
(1.00142 0.00415926 0)
(1.00524 0.00296193 0)
(1.00383 0.00315553 0)
(1.00111 0.00590196 0)
(1.00268 0.00637336 0)
(1.00642 0.00547666 0)
(1.00475 0.00627178 0)
(1.00421 0.00869848 0)
(1.00663 0.00799243 0)
(1.00935 0.00637052 0)
(1.00757 0.00676834 0)
(1.00699 0.0080577 0)
(1.00821 0.00755763 0)
(1.01045 0.00636418 0)
(1.00983 0.00611388 0)
(1.00882 0.00694365 0)
(1.00817 0.00760574 0)
(1.00959 0.0072373 0)
(1.00043 0.000137781 0)
(0.999665 0.0029909 0)
(1.00114 0.00420091 0)
(1.00487 0.00300585 0)
(1.00386 0.00290275 0)
(1.00119 0.00584188 0)
(1.00246 0.0065218 0)
(1.00622 0.00554306 0)
(1.00502 0.00599325 0)
(1.00433 0.00835634 0)
(1.00626 0.00800972 0)
(1.00907 0.00647352 0)
(1.00781 0.006494 0)
(1.00713 0.00773134 0)
(1.00792 0.00759199 0)
(1.01011 0.0065638 0)
(1.00993 0.00612738 0)
(1.00919 0.00666033 0)
(1.00832 0.00739155 0)
(1.00935 0.00727554 0)
(1.0004 0.000149144 0)
(0.999698 0.00268065 0)
(1.00089 0.00417627 0)
(1.00448 0.00310902 0)
(1.00388 0.00267662 0)
(1.00132 0.00567973 0)
(1.00225 0.00664867 0)
(1.00596 0.00568764 0)
(1.00526 0.00577452 0)
(1.0045 0.007986 0)
(1.00595 0.00797378 0)
(1.00874 0.00659832 0)
(1.00798 0.00630276 0)
(1.00732 0.00738228 0)
(1.00771 0.00753734 0)
(1.00977 0.00670616 0)
(1.00992 0.00617337 0)
(1.0095 0.00643051 0)
(1.00854 0.00710186 0)
(1.00922 0.00719256 0)
(1.00037 0.000173648 0)
(0.999747 0.00238898 0)
(1.00068 0.00409747 0)
(1.00407 0.00324257 0)
(1.00389 0.00249696 0)
(1.0015 0.00542086 0)
(1.00209 0.00670047 0)
(1.00567 0.00586426 0)
(1.00543 0.0056224 0)
(1.00469 0.0075945 0)
(1.00569 0.00787368 0)
(1.00838 0.00672008 0)
(1.00806 0.00620851 0)
(1.00753 0.00706835 0)
(1.00759 0.00742968 0)
(1.00944 0.00682989 0)
(1.00981 0.00627032 0)
(1.00972 0.00631082 0)
(1.00879 0.00684534 0)
(1.00918 0.00705223 0)
(1.00033 0.000200626 0)
(0.99981 0.0021243 0)
(1.00052 0.0039648 0)
(1.00366 0.00339602 0)
(1.00386 0.00240607 0)
(1.00172 0.00512198 0)
(1.00199 0.00668451 0)
(1.00535 0.00604216 0)
(1.00554 0.00552943 0)
(1.00491 0.00719895 0)
(1.00551 0.00768857 0)
(1.00801 0.00677916 0)
(1.00807 0.00612426 0)
(1.00773 0.00673723 0)
(1.00755 0.0072007 0)
(1.00915 0.0068384 0)
(1.00965 0.00632166 0)
(1.00984 0.00620289 0)
(1.00903 0.00658891 0)
(1.00923 0.00682119 0)
(1.0003 0.000228753 0)
(0.999881 0.00189697 0)
(1.0004 0.00378997 0)
(1.00325 0.00353741 0)
(1.00381 0.00238497 0)
(1.00197 0.00481483 0)
(1.00195 0.00658483 0)
(1.00502 0.0062035 0)
(1.00556 0.00550419 0)
(1.00511 0.0068605 0)
(1.00539 0.00747636 0)
(1.00765 0.00683105 0)
(1.00799 0.0061142 0)
(1.0079 0.00649288 0)
(1.00758 0.00698284 0)
(1.00892 0.00681342 0)
(1.00945 0.00639361 0)
(1.00987 0.00616337 0)
(1.00921 0.00640689 0)
(1.00931 0.00660803 0)
(1.00027 0.000261598 0)
(0.999958 0.00168394 0)
(1.00033 0.00348865 0)
(1.00285 0.00364728 0)
(1.00371 0.00246264 0)
(1.00223 0.00454255 0)
(1.00197 0.00640503 0)
(1.0047 0.00631387 0)
(1.00553 0.00551796 0)
(1.0053 0.00655256 0)
(1.00534 0.00721514 0)
(1.00732 0.00681795 0)
(1.00786 0.00610767 0)
(1.00803 0.00626869 0)
(1.00765 0.00672451 0)
(1.00876 0.00669686 0)
(1.00925 0.00639569 0)
(1.00982 0.00612617 0)
(1.00934 0.00623821 0)
(1.0094 0.00639738 0)
(1.00024 0.000278224 0)
(1.00002 0.00154039 0)
(1.00031 0.0031875 0)
(1.00252 0.00373356 0)
(1.0036 0.00262214 0)
(1.00249 0.00431905 0)
(1.00206 0.00615269 0)
(1.00442 0.00634445 0)
(1.00544 0.0055332 0)
(1.00545 0.00627194 0)
(1.00533 0.00692968 0)
(1.00703 0.00675174 0)
(1.00767 0.00610429 0)
(1.0081 0.00609421 0)
(1.00775 0.00646364 0)
(1.00867 0.00654403 0)
(1.00908 0.00635133 0)
(1.00974 0.00610394 0)
(1.00941 0.00610799 0)
(1.00949 0.00620396 0)
(1.00021 0.000294523 0)
(1.00008 0.0014511 0)
(1.00032 0.00296635 0)
(1.00222 0.00378771 0)
(1.00344 0.00278835 0)
(1.0027 0.00413232 0)
(1.00219 0.00583982 0)
(1.00417 0.0062975 0)
(1.00531 0.00553764 0)
(1.00557 0.00603524 0)
(1.00537 0.0066416 0)
(1.0068 0.00665464 0)
(1.00747 0.00610202 0)
(1.00811 0.00597453 0)
(1.00784 0.00622149 0)
(1.00862 0.00635422 0)
(1.00893 0.00625345 0)
(1.00962 0.0060502 0)
(1.00941 0.00599962 0)
(1.00956 0.00600203 0)
(1.00019 0.000309782 0)
(1.00013 0.00137859 0)
(1.00035 0.00274242 0)
(1.00198 0.00378346 0)
(1.00327 0.00293651 0)
(1.00287 0.00398646 0)
(1.00235 0.00548856 0)
(1.00397 0.00615883 0)
(1.00513 0.00549107 0)
(1.00562 0.00579068 0)
(1.00541 0.00630855 0)
(1.0066 0.00647082 0)
(1.00724 0.00603912 0)
(1.00804 0.00584472 0)
(1.00789 0.00597656 0)
(1.0086 0.00611035 0)
(1.00883 0.00609334 0)
(1.00951 0.00594367 0)
(1.00936 0.00590532 0)
(1.00959 0.00582532 0)
(1.00016 0.000311003 0)
(1.00017 0.00136274 0)
(1.0004 0.00254341 0)
(1.00177 0.00371276 0)
(1.00309 0.00303856 0)
(1.00299 0.00387421 0)
(1.00252 0.0051455 0)
(1.00382 0.00597967 0)
(1.00495 0.00546248 0)
(1.00564 0.00562172 0)
(1.00548 0.00604008 0)
(1.00647 0.00629984 0)
(1.00703 0.00600282 0)
(1.00794 0.00577977 0)
(1.00792 0.00581202 0)
(1.0086 0.00590707 0)
(1.00876 0.00593293 0)
(1.00942 0.00581881 0)
(1.00928 0.00581402 0)
(1.00956 0.00569303 0)
(1.00015 0.000306741 0)
(1.00019 0.00135592 0)
(1.00045 0.00236091 0)
(1.0016 0.00361785 0)
(1.0029 0.00314035 0)
(1.00307 0.0038299 0)
(1.00269 0.00486912 0)
(1.00373 0.00578619 0)
(1.00476 0.00542418 0)
(1.0056 0.00547548 0)
(1.00553 0.00575695 0)
(1.00636 0.00605343 0)
(1.00682 0.00587893 0)
(1.00778 0.00566772 0)
(1.00787 0.00561776 0)
(1.00857 0.00566695 0)
(1.00869 0.00570711 0)
(1.00933 0.00561464 0)
(1.0092 0.00564416 0)
(1.00948 0.00554505 0)
(1.00013 0.000306111 0)
(1.00021 0.00132549 0)
(1.0005 0.00219102 0)
(1.00146 0.00350493 0)
(1.00272 0.00320009 0)
(1.0031 0.00377611 0)
(1.00283 0.00459193 0)
(1.00366 0.00553561 0)
(1.00457 0.00531734 0)
(1.0055 0.00533144 0)
(1.00555 0.00548892 0)
(1.00629 0.00579145 0)
(1.00665 0.00572787 0)
(1.0076 0.00557108 0)
(1.0078 0.00546889 0)
(1.00853 0.00546066 0)
(1.00863 0.00550252 0)
(1.00927 0.00540778 0)
(1.00915 0.00543573 0)
(1.0094 0.00537669 0)
(1.00013 0.00029793 0)
(1.00022 0.00130971 0)
(1.00056 0.00203641 0)
(1.00136 0.00337036 0)
(1.00255 0.0032298 0)
(1.00309 0.00374911 0)