/*--------------------------------*- C++ -*----------------------------------*\
| =========                 |                                                 |
| \\      /  F ield         | OpenFOAM: The Open Source CFD Toolbox           |
|  \\    /   O peration     | Version:  2506                                  |
|   \\  /    A nd           | Website:  www.openfoam.com                      |
|    \\/     M anipulation  |                                                 |
\*---------------------------------------------------------------------------*/
FoamFile
{
    version     2.0;
    format      ascii;
    arch        "LSB;label=32;scalar=64";
    class       volScalarField;
    location    "3.25";
    object      p;
}
// * * * * * * * * * * * * * * * * * * * * * * * * * * * * * * * * * * * * * //

dimensions      [0 2 -2 0 0 0 0];

internalField   nonuniform List<scalar> 
9600
(
-1.68299e-10
-5.53005e-05
0.000437982
-0.00105156
-0.0025499
-0.000647973
0.000120782
-0.00107309
-0.000738044
-0.000876855
-6.667e-05
-0.000750956
-8.68463e-05
-0.000777923
-0.00240331
-0.00129173
-0.00261185
-0.00130966
-0.000999377
-0.000180697
1.10257e-06
-5.56922e-05
0.000430767
-0.00105369
-0.00253176
-0.000657364
0.00010505
-0.00107629
-0.000747013
-0.000885307
-5.76825e-05
-0.000763304
-6.51839e-05
-0.000787614
-0.00237767
-0.00132956
-0.00257707
-0.00133578
-0.000991066
-0.000300481
2.5382e-06
-5.69685e-05
0.000421179
-0.00105415
-0.00251178
-0.000670199
8.20422e-05
-0.00107868
-0.000761504
-0.000888915
-5.51734e-05
-0.000781851
-4.50082e-05
-0.000807111
-0.00234456
-0.00138581
-0.00251818
-0.00138324
-0.000986937
-0.000462336
4.43954e-06
-5.79657e-05
0.000409956
-0.00105365
-0.00249003
-0.000684786
6.05047e-05
-0.00107766
-0.000777326
-0.000888932
-5.77402e-05
-0.000808313
-2.78415e-05
-0.00083689
-0.00230289
-0.0014496
-0.00246049
-0.00143212
-0.00099822
-0.000629816
7.15691e-06
-5.88436e-05
0.000396536
-0.00105136
-0.0024635
-0.000701452
4.12234e-05
-0.00107389
-0.000792173
-0.00088521
-6.28462e-05
-0.000839135
-1.13709e-05
-0.000872089
-0.00225507
-0.00152175
-0.00240545
-0.00147301
-0.00103302
-0.000785149
1.06599e-05
-6.00566e-05
0.000381773
-0.00104629
-0.00243145
-0.000719879
2.41353e-05
-0.00106759
-0.00080311
-0.000877718
-6.88532e-05
-0.000870913
4.19667e-06
-0.000908983
-0.00220338
-0.00159517
-0.00234918
-0.00151047
-0.00108936
-0.00091729
1.47259e-05
-6.16848e-05
0.000366878
-0.00103824
-0.00239443
-0.000738765
1.00096e-05
-0.00105835
-0.000808762
-0.000867079
-7.45624e-05
-0.000901872
1.86645e-05
-0.000944992
-0.00214995
-0.00166244
-0.0022957
-0.0015464
-0.00115867
-0.00103373
1.91536e-05
-6.36476e-05
0.000352592
-0.00102761
-0.00235318
-0.000756553
-8.41948e-07
-0.0010463
-0.000809405
-0.000854071
-7.94037e-05
-0.000931512
3.21497e-05
-0.000978793
-0.00209591
-0.00172004
-0.00225006
-0.00157532
-0.00123849
-0.00114662
2.38093e-05
-6.58492e-05
0.000339162
-0.00101501
-0.00230839
-0.000772368
-8.94528e-06
-0.00103224
-0.000806134
-0.000839438
-8.33334e-05
-0.000959951
4.44902e-05
-0.00100919
-0.00204242
-0.00176687
-0.00221372
-0.00159346
-0.00133185
-0.00126201
2.86236e-05
-6.81777e-05
0.000326514
-0.00100108
-0.00226069
-0.000786137
-1.51912e-05
-0.00101698
-0.000800144
-0.000823909
-8.65346e-05
-0.000987519
5.53055e-05
-0.00103484
-0.00199149
-0.00180209
-0.00218704
-0.00160157
-0.00143882
-0.0013819
3.35803e-05
-7.0544e-05
0.000314419
-0.000986353
-0.0022107
-0.000798227
-2.04883e-05
-0.00100109
-0.000792463
-0.000808071
-8.93423e-05
-0.00101445
6.4251e-05
-0.00105477
-0.00194537
-0.00182461
-0.00217134
-0.00160167
-0.00155531
-0.00150953
3.86862e-05
-7.29096e-05
0.00030266
-0.000971176
-0.00215891
-0.000809121
-2.56229e-05
-0.000984953
-0.000783884
-0.000792236
-9.21724e-05
-0.00104074
7.09412e-05
-0.00106837
-0.00190614
-0.00183375
-0.002168
-0.00159596
-0.00167559
-0.00164911
4.39503e-05
-7.52561e-05
0.000291108
-0.000955739
-0.0021057
-0.000819187
-3.11726e-05
-0.00096881
-0.000774949
-0.000776475
-9.54561e-05
-0.00106619
7.47209e-05
-0.00107493
-0.00187558
-0.00182992
-0.00217716
-0.00158787
-0.00179334
-0.00180282
4.93802e-05
-7.7571e-05
0.000279708
-0.000940144
-0.0020513
-0.000828569
-3.74925e-05
-0.000952812
-0.00076603
-0.000760626
-9.96612e-05
-0.00109039
7.48311e-05
-0.00107385
-0.00185491
-0.00181451
-0.00219726
-0.00158231
-0.00190225
-0.00197
5.49853e-05
-7.98565e-05
0.000268443
-0.000924432
-0.00199587
-0.000837272
-4.47819e-05
-0.000937015
-0.0007574
-0.000744381
-0.00010525
-0.00111292
7.06217e-05
-0.00106502
-0.00184475
-0.00178941
-0.00222518
-0.00158492
-0.00199707
-0.00214784
6.07758e-05
-8.21217e-05
0.000257329
-0.000908618
-0.0019395
-0.000845397
-5.31654e-05
-0.000921358
-0.000749263
-0.000727384
-0.000112671
-0.00113328
6.14583e-05
-0.00104839
-0.00184535
-0.00175734
-0.00225639
-0.00160082
-0.00207436
-0.00233157
6.67651e-05
-8.43784e-05
0.000246386
-0.000892692
-0.00188231
-0.000852642
-6.27425e-05
-0.000905678
-0.000741832
-0.000709229
-0.000122328
-0.00115111
4.67626e-05
-0.00102369
-0.00185645
-0.00172181
-0.00228588
-0.0016338
-0.00213322
-0.00251528
7.29701e-05
-8.66404e-05
0.000235635
-0.000876622
-0.00182441
-0.000858882
-7.36132e-05
-0.000889751
-0.000735337
-0.000689541
-0.000134467
-0.00116632
2.61773e-05
-0.000991321
-0.00187633
-0.00168589
-0.00231001
-0.00168601
-0.00217534
-0.00269245
7.94079e-05
-8.89179e-05
0.000225099
-0.00086037
-0.00176594
-0.000864001
-8.59009e-05
-0.000873353
-0.000729998
-0.000668043
-0.000149183
-0.00117898
-2.96726e-07
-0.000952479
-0.00190264
-0.00163311
-0.00232627
-0.00175719
-0.00220427
-0.00285627
8.60944e-05
-9.12148e-05
0.000214806
-0.00084388
-0.00170709
-0.000867792
-9.97514e-05
-0.000856254
-0.000726069
-0.000644584
-0.000166338
-0.00118941
-3.22959e-05
-0.000908469
-0.00193335
-0.00161312
-0.00233302
-0.00184493
-0.00222473
-0.00300036
9.30455e-05
-9.35269e-05
0.000204779
-0.000827062
-0.00164809
-0.000870033
-0.000115326
-0.000838226
-0.000723778
-0.000619267
-0.000185424
-0.00119825
-6.93416e-05
-0.000860807
-0.00196581
-0.00160489
-0.00232979
-0.00194573
-0.00224233
-0.00311928
0.000100268
-9.58238e-05
0.000195031
-0.000809803
-0.00158921
-0.000870478
-0.000132825
-0.000819068
-0.000723249
-0.000592464
-0.000205623
-0.00120636
-0.000110708
-0.000810958
-0.00199811
-0.00160997
-0.00231651
-0.00205594
-0.00226334
-0.00320905
0.000107747
-9.80464e-05
0.00018555
-0.000791967
-0.00153068
-0.000868911
-0.000152438
-0.00079868
-0.000724491
-0.000564717
-0.000225896
-0.00121463
-0.000155651
-0.000760022
-0.00202904
-0.00162861
-0.00229346
-0.00217182
-0.00229351
-0.00326759
0.000115462
-0.000100107
0.000176296
-0.000773412
-0.00147278
-0.000865096
-0.000174243
-0.000777103
-0.000727292
-0.000536905
-0.000245008
-0.00122362
-0.000204054
-0.000709145
-0.00205719
-0.00166102
-0.00226198
-0.00228882
-0.00233692
-0.00329512
0.000123398
-0.000101868
0.000167206
-0.000754001
-0.00141578
-0.00085879
-0.000198225
-0.000754466
-0.000731214
-0.000510195
-0.000261745
-0.00123358
-0.00025617
-0.000659145
-0.00208133
-0.00170772
-0.00222382
-0.0024013
-0.00239652
-0.00329482
0.000131479
-0.000103139
0.000158196
-0.000733559
-0.00135995
-0.0008498
-0.000224247
-0.000731028
-0.000735597
-0.000485736
-0.000275331
-0.00124434
-0.000312357
-0.000610855
-0.00210023
-0.00176907
-0.00218089
-0.00250277
-0.00247468
-0.00327263
0.000139581
-0.000103654
0.000149183
-0.000711974
-0.00130545
-0.000837794
-0.000251984
-0.00070728
-0.000739604
-0.000464499
-0.00028548
-0.00125535
-0.000372984
-0.000565442
-0.00211252
-0.00184477
-0.00213618
-0.0025864
-0.00257245
-0.00323742
0.0001476
-0.000103113
0.000140093
-0.000689259
-0.00125237
-0.0008223
-0.000280976
-0.000683908
-0.000742476
-0.000447174
-0.000292113
-0.00126599
-0.00043842
-0.000523834
-0.00211676
-0.00193389
-0.00209433
-0.00264538
-0.00268782
-0.00320201
0.000155401
-0.000101199
0.000130869
-0.000665412
-0.00120079
-0.000798505
-0.000310477
-0.000661579
-0.000743757
-0.000434239
-0.000295393
-0.00127519
-0.000509447
-0.00048767
-0.00211138
-0.00203442
-0.00206065
-0.00267424
-0.00281382
-0.00318152
0.000162807
-9.75767e-05
0.000121494
-0.000640466
-0.00115069
-0.000769519
-0.000339576
-0.000640862
-0.000743034
-0.000426024
-0.000296024
-0.00128149
-0.000586463
-0.000459257
-0.00209486
-0.00214308
-0.00204072
-0.00267076
-0.00293813
-0.00318964
0.000169651
-9.19723e-05
0.000112045
-0.000614541
-0.00110197
-0.000747262
-0.000367567
-0.00062212
-0.000739741
-0.000422786
-0.00029514
-0.00128375
-0.000668943
-0.000440668
-0.0020663
-0.00225616
-0.00203996
-0.00263782
-0.00304624
-0.0032331
0.000175786
-8.41396e-05
0.000102718
-0.000587957
-0.00105424
-0.000727053
-0.000393997
-0.000605249
-0.000734758
-0.000424781
-0.000293874
-0.00128113
-0.000756035
-0.00043424
-0.0020261
-0.00236983
-0.00206206
-0.0025836
-0.00312468
-0.0033067
0.000181073
-7.38112e-05
9.38707e-05
-0.000561327
-0.00100697
-0.000707611
-0.000418619
-0.000589845
-0.000729849
-0.000432102
-0.000293696
-0.00127299
-0.000846348
-0.000442034
-0.00197565
-0.00249394
-0.00210789
-0.00251787
-0.00316485
-0.00339511
0.000185372
-6.08336e-05
8.60739e-05
-0.000535345
-0.000959853
-0.000689243
-0.000441625
-0.000575621
-0.000723337
-0.000444526
-0.000296484
-0.00125932
-0.000937826
-0.000465187
-0.00191598
-0.00260263
-0.00217576
-0.00245
-0.00316535
-0.00348021
0.000188637
-4.53463e-05
8.01649e-05
-0.000510519
-0.000912978
-0.000672435
-0.000463487
-0.000562739
-0.000712811
-0.000461692
-0.000304215
-0.00124046
-0.00102807
-0.000504615
-0.00184888
-0.00268435
-0.00226274
-0.00238789
-0.00313047
-0.00354706
0.000190921
-2.78208e-05
7.72574e-05
-0.000486984
-0.000866792
-0.000662981
-0.000484388
-0.000551946
-0.000698201
-0.000483031
-0.000318892
-0.0012173
-0.00111439
-0.000560425
-0.00177778
-0.00274344
-0.00236509
-0.00233757
-0.00306611
-0.00358634
0.000192318
-9.06575e-06
7.83458e-05
-0.000464187
-0.000822052
-0.000641392
-0.000504176
-0.000544391
-0.000680916
-0.000507354
-0.000341802
-0.00119169
-0.00119412
-0.000630911
-0.00170701
-0.00278133
-0.00247813
-0.00230423
-0.00297782
-0.00359343
0.000193189
9.87618e-06
8.40659e-05
-0.000440649
-0.000779929
-0.000616273
-0.000522036
-0.000541025
-0.000661905
-0.000533201
-0.000373375
-0.00116599
-0.00126478
-0.000713305
-0.00164089
-0.00282478
-0.00259587
-0.00229293
-0.00287224
-0.00356564
0.000193799
2.8293e-05
9.46305e-05
-0.000414742
-0.000741296
-0.000589537
-0.000536783
-0.000542714
-0.000643639
-0.000558747
-0.000413029
-0.0011421
-0.00132472
-0.000804192
-0.00158145
-0.00280334
-0.00270929
-0.0023079
-0.00275864
-0.00350128
0.000194397
4.56482e-05
0.000109422
-0.000384735
-0.000706197
-0.000563986
-0.000548116
-0.000549635
-0.000626905
-0.000581512
-0.000457836
-0.00112153
-0.00137384
-0.000899781
-0.00153237
-0.00275684
-0.00281052
-0.00235031
-0.00264846
-0.0034011
0.000195533
6.13494e-05
0.000127225
-0.00034906
-0.000674118
-0.000541764
-0.000556094
-0.000561447
-0.000611781
-0.00059936
-0.000503821
-0.00110495
-0.00141273
-0.000997212
-0.00149705
-0.0026912
-0.0028923
-0.00241631
-0.00255329
-0.00327068
0.000198583
7.48629e-05
0.000146181
-0.000306287
-0.000643344
-0.000524423
-0.000561088
-0.00057755
-0.000598762
-0.000612273
-0.000546223
-0.00109116
-0.00144199
-0.0010941
-0.00147702
-0.00261163
-0.00294943
-0.00249828
-0.00248274
-0.00312056
0.000204014
8.62393e-05
0.000164185
-0.000256069
-0.000610806
-0.000512381
-0.000565236
-0.000599243
-0.000600243
-0.000621082
-0.000580752
-0.00107741
-0.00146185
-0.00118756
-0.00147253
-0.00252333
-0.00297869
-0.00258688
-0.00244153
-0.00296402
0.000211922
9.66716e-05
0.000179864
-0.000199019
-0.000575058
-0.000505571
-0.000569298
-0.000625776
-0.000628447
-0.000627784
-0.000606716
-0.00106235
-0.0014728
-0.00127517
-0.00146725
-0.00243109
-0.00297889
-0.00267336
-0.00242951
-0.0028141
0.000222847
0.000107018
0.000200046
-0.000136855
-0.000536789
-0.000510613
-0.000572394
-0.000645853
-0.000646418
-0.000636336
-0.00062707
-0.00104658
-0.00147583
-0.00135544
-0.00148806
-0.00234102
-0.00295137
-0.00274936
-0.00244325
-0.00268209
0.000236967
0.000118606
0.000208246
-7.72047e-05
-0.000494581
-0.000517299
-0.000574379
-0.000657924
-0.000663859
-0.000649433
-0.000647363
-0.00103131
-0.00147125
-0.00142568
-0.00152075
-0.0022591
-0.00289983
-0.00280734
-0.00247606
-0.00257528
0.000253761
0.000132503
0.000208603
-2.28148e-05
-0.000444844
-0.000523105
-0.0005796
-0.000663386
-0.000679325
-0.000667901
-0.000670792
-0.00101743
-0.0014587
-0.00148323
-0.0015595
-0.00218884
-0.00283033
-0.00284171
-0.0025189
-0.00249596
0.000273108
0.000149244
0.000204719
2.50964e-05
-0.000388793
-0.000526765
-0.000588281
-0.00066387
-0.000690824
-0.000689842
-0.000696791
-0.00100496
-0.00143865
-0.0015262
-0.00160008
-0.00213203
-0.00274979
-0.0028504
-0.00256232
-0.00244237
0.000294587
0.00016895
0.000198554
6.35346e-05
-0.000329833
-0.00052455
-0.000599359
-0.000663678
-0.00069647
-0.000709596
-0.000723543
-0.000995296
-0.00141381
-0.00155468
-0.00163789
-0.00208781
-0.00266469
-0.00283474
-0.00259816
-0.00240928
0.000317882
0.000193235
0.000191932
9.04993e-05
-0.000271116
-0.000513944
-0.000611635
-0.00066487
-0.000696598
-0.000724222
-0.000750392
-0.000989819
-0.00138654
-0.00156972
-0.00166878
-0.00205323
-0.00258049
-0.00279842
-0.00262081
-0.00238995
0.000342284
0.000221806
0.000186807
0.000104957
-0.000216151
-0.000493529
-0.000621954
-0.000668351
-0.000692678
-0.000732744
-0.000775084
-0.000988126
-0.00135828
-0.00157307
-0.00169135
-0.0020247
-0.00250028
-0.00274587
-0.00262652
-0.00237768
0.00036749
0.00025459
0.00018406
0.000106875
-0.000167507
-0.000463005
-0.000627377
-0.000674696
-0.000688905
-0.00073545
-0.000794298
-0.000988655
-0.00133067
-0.00156676
-0.00170466
-0.00199831
-0.00242442
-0.00268191
-0.00261366
-0.0023663
0.000392978
0.000290501
0.000185107
9.95889e-05
-0.000127349
-0.000424538
-0.000625113
-0.000683391
-0.00068825
-0.000733277
-0.000805928
-0.000988535
-0.00130445
-0.00155314
-0.00170852
-0.00197159
-0.00235226
-0.00261134
-0.00258341
-0.0023493
0.000417982
0.000325803
0.000192853
8.85279e-05
-9.79872e-05
-0.000381922
-0.000613427
-0.000693143
-0.000691904
-0.000729061
-0.000810068
-0.000985064
-0.00127867
-0.00153386
-0.00170395
-0.00194341
-0.00228256
-0.00253648
-0.00253859
-0.00232107
0.000442274
0.000360174
0.000207403
7.77482e-05
-8.02499e-05
-0.000339732
-0.00059166
-0.000698501
-0.000699364
-0.000725415
-0.00080733
-0.000976677
-0.00125117
-0.00151028
-0.00169297
-0.00191378
-0.00221473
-0.0024581
-0.00248294
-0.00228041
0.000465929
0.000391992
0.000228178
7.03844e-05
-7.31179e-05
-0.000301977
-0.000560998
-0.000696311
-0.000709038
-0.000723996
-0.000799596
-0.000962638
-0.00122105
-0.0014808
-0.00167563
-0.00188305
-0.00214902
-0.0023768
-0.002419
-0.00222983
0.000489265
0.000421238
0.000253163
6.83655e-05
-7.40305e-05
-0.00027166
-0.000524297
-0.000684574
-0.000716284
-0.000725016
-0.000789833
-0.000942993
-0.00118675
-0.00144459
-0.00165003
-0.00185031
-0.00208574
-0.00229335
-0.00234719
-0.00217176
0.000512611
0.000447845
0.000279326
7.25976e-05
-7.9244e-05
-0.000250605
-0.00048427
-0.000662721
-0.000717162
-0.000727519
-0.000780298
-0.000917989
-0.00114698
-0.00140195
-0.00161573
-0.00181334
-0.002025
-0.00220949
-0.00226773
-0.0021067
0.00053599
0.000471729
0.000304694
8.27413e-05
-8.48954e-05
-0.000238689
-0.000447103
-0.000631342
-0.000709691
-0.000728218
-0.000771561
-0.000891766
-0.00110154
-0.00135173
-0.00157281
-0.00176989
-0.00196525
-0.00212734
-0.0021822
-0.00203398
0.000559209
0.000493563
0.000327677
9.77454e-05
-8.8011e-05
-0.000233822
-0.000415006
-0.000592504
-0.000692449
-0.000724224
-0.000763517
-0.000867123
-0.00105457
-0.00129382
-0.0015205
-0.001719
-0.00190342
-0.00204762
-0.00209338
-0.00195343
0.000581915
0.00051369
0.000347889
0.000115419
-8.68762e-05
-0.00023284
-0.000390075
-0.000553238
-0.000664273
-0.000713219
-0.000752468
-0.000841946
-0.00100878
-0.00123138
-0.00145838
-0.00166013
-0.00183734
-0.00196869
-0.00200378
-0.00186643
0.000603614
0.000532434
0.000365367
0.00013336
-8.13089e-05
-0.000237945
-0.000372699
-0.000515522
-0.000627999
-0.000691372
-0.000736494
-0.000815492
-0.000962488
-0.00116744
-0.00138847
-0.00159245
-0.00176611
-0.00188812
-0.00191401
-0.00177507
0.000623753
0.000549814
0.000380143
0.000150159
-7.1707e-05
-0.000236396
-0.000360265
-0.000481534
-0.000587572
-0.00065939
-0.000712158
-0.000786633
-0.000915214
-0.00110161
-0.00131362
-0.00151592
-0.00168843
-0.00180435
-0.00182298
-0.00168083
0.000641822
0.000565625
0.000392786
0.000164867
-5.97144e-05
-0.000231328
-0.000349919
-0.000451771
-0.000545689
-0.00061935
-0.000677504
-0.000751367
-0.000866571
-0.00103356
-0.00123442
-0.00143176
-0.00160244
-0.00171596
-0.00172937
-0.00158425
0.000657257
0.000579488
0.000403844
0.000176984
-4.71938e-05
-0.000223147
-0.000339399
-0.000425798
-0.000504082
-0.000574139
-0.000634441
-0.000706278
-0.000813132
-0.000963426
-0.00115005
-0.00134073
-0.00150745
-0.00162026
-0.00163166
-0.00148423
0.000669522
0.000590928
0.000413127
0.000186499
-3.57638e-05
-0.000212793
-0.000327532
-0.000402135
-0.000464019
-0.000524928
-0.000583995
-0.000652624
-0.000751203
-0.000888586
-0.00105973
-0.00124154
-0.00140354
-0.0015153
-0.00152822
-0.00138062
0.00067819
0.000599289
0.000420243
0.000193626
-2.62403e-05
-0.000201862
-0.000314349
-0.000379152
-0.000425837
-0.00047358
-0.000526083
-0.000590643
-0.000680387
-0.000805545
-0.000962148
-0.00113259
-0.0012897
-0.00139969
-0.00141603
-0.00127178
0.000682861
0.000604148
0.000424569
0.000198032
-1.90619e-05
-0.000191636
-0.00030086
-0.000356503
-0.000388812
-0.000421877
-0.000461903
-0.000518581
-0.000600113
-0.000712645
-0.000855649
-0.00101367
-0.00116413
-0.00127161
-0.00129012
-0.00115178
0.000682722
0.000604573
0.000425443
0.00019941
-1.48745e-05
-0.00018283
-0.00028784
-0.000335275
-0.000352969
-0.000370239
-0.000393951
-0.000435824
-0.000506829
-0.00060728
-0.000736511
-0.000882926
-0.00102517
-0.00113001
-0.00114973
-0.00101727
0.000677289
0.000599842
0.000421995
0.000197144
-1.43893e-05
-0.000177217
-0.000276311
-0.000315565
-0.000319609
-0.000320008
-0.000325003
-0.000345344
-0.000397746
-0.000481754
-0.000596161
-0.000732315
-0.000867496
-0.000970273
-0.000993598
-0.000869555
0.000666493
0.000590875
0.000413236
0.000189928
-1.82021e-05
-0.000176381
-0.000268617
-0.000298306
-0.000290019
-0.000273986
-0.000258155
-0.000253543
-0.000275048
-0.000330102
-0.000418941
-0.000539172
-0.00067408
-0.000784562
-0.00081907
-0.000707764
0.000647742
0.000573423
0.000399666
0.00017948
-2.69976e-05
-0.000180782
-0.000266902
-0.000286059
-0.000265042
-0.000234016
-0.00019543
-0.000164993
-0.000153059
-0.000157379
-0.000192894
-0.000264769
-0.000373056
-0.000491324
-0.000560195
-0.00050161
0.000620309
0.000548389
0.000379948
0.000162459
-4.25176e-05
-0.000191456
-0.000273244
-0.000283895
-0.000248405
-0.000199207
-0.000135179
-7.9001e-05
-4.69448e-05
-2.12602e-05
-1.20058e-05
-2.33814e-05
-4.85113e-05
-8.66704e-05
-0.000107978
-2.76622e-05
0.000587915
0.000519134
0.000350065
0.000133657
-6.51616e-05
-0.000208472
-0.000287118
-0.000301631
-0.000267835
-0.000193526
-6.95713e-05
8.98658e-05
0.000252501
0.000395817
0.000479119
0.000461781
0.00035623
0.000218267
9.69297e-05
3.4123e-05
0.000543283
0.000475494
0.000309928
0.00010264
-8.50482e-05
-0.000224244
-0.000304083
-0.000331919
-0.000328406
-0.000326547
-0.000315775
-0.000237622
-5.04698e-06
0.000407095
0.000872841
0.0012795
0.00159276
0.00183182
0.00204132
0.00220901
0.000481242
0.000413419
0.000258162
6.76125e-05
-0.000100079
-0.000220949
-0.000302386
-0.000346094
-0.000331658
-0.000216227
6.22388e-05
0.000415512
0.000732608
0.000948342
0.00107879
0.00117302
0.00127132
0.0014177
0.00157955
0.00167744
0.000402033
0.000353223
0.000197333
2.62955e-06
-0.000175343
-0.000306603
-0.000349353
-0.000258752
-6.36002e-05
0.000133551
0.000301744
0.000443216
0.00058918
0.000791426
0.00106008
0.0014041
0.00179416
0.00216579
0.00248138
0.00267856
0.000270296
0.000245163
0.000178336
8.87468e-05
1.23653e-05
-2.75659e-05
-1.70401e-05
4.37046e-05
0.000135074
0.000247908
0.000381745
0.000537466
0.000675748
0.00079333
0.000855743
0.000833142
0.00073124
0.00057127
0.000378882
0.000220178
0.000112794
8.07775e-05
9.84572e-05
0.000107196
8.4156e-05
3.5842e-05
-3.6301e-06
-7.68677e-06
5.38794e-05
0.00017399
0.00031504
0.000500219
0.00070322
0.000927752
0.00120426
0.00151208
0.00183711
0.00214712
0.00240461
0.00253457
1.97082e-05
-5.41571e-06
3.57065e-05
9.59098e-05
0.000138743
0.000165774
0.000212566
0.000269241
0.000328136
0.000391997
0.000452115
0.000541353
0.000665858
0.000780547
0.000906363
0.00105423
0.00122443
0.00139588
0.00153279
0.00157929
0.000458275
-0.00224702
-0.00760864
-0.0113949
-0.0114379
-0.00950135
-0.00736731
-0.00562514
-0.00429943
-0.00332551
-0.00270879
-0.00236252
-0.00202527
-0.00150904
-0.000888207
-0.000324253
0.000131345
0.000485071
0.000793287
0.00119754
0.00173226
0.00226138
0.00271065
0.00313265
0.00358999
0.00410304
0.00462636
0.00509437
0.00552014
0.00596843
0.006446
0.00690354
0.00732052
0.00773921
0.00820261
0.00870337
0.0092117
0.00972756
0.0102715
0.010835
0.0113911
0.0119352
0.0124771
0.0130115
0.0135274
0.0140583
0.0146328
0.0152233
0.0158163
0.0164419
0.0171067
0.0177594
0.0183847
0.0190335
0.0196982
0.0203472
0.021023
0.0217376
0.0224582
0.0231922
0.023948
0.024711
0.0254811
0.0262628
0.0270582
0.0278697
0.0286981
0.0295472
0.030414
0.0312934
0.0321855
0.0330979
0.0340291
0.03498
0.0359456
0.0369285
0.0379278
0.038952
0.0399959
0.0410629
0.0421445
0.0432482
0.0443714
0.0455214
0.0466898
0.0478836
0.0490954
0.050332
0.0515889
0.052871
0.0541763
0.0555022
0.056851
0.0582199
0.0596127
0.0610152
0.0624512
0.0638701
0.0652199
0.0666228
0.000175969
-0.0023239
-0.00749734
-0.0112656
-0.0113713
-0.00946962
-0.00734646
-0.00560905
-0.00428626
-0.00331407
-0.00269869
-0.0023542
-0.00201881
-0.00150383
-0.000883649
-0.000320069
0.000135267
0.000488696
0.000796382
0.00120015
0.00173474
0.00226385
0.00271295
0.00313472
0.00359181
0.0041047
0.00462796
0.0050959
0.00552151
0.00596965
0.00644717
0.00690468
0.0073216
0.00774018
0.0082035
0.00870422
0.00921252
0.00972832
0.0102722
0.0108357
0.0113918
0.0119359
0.0124777
0.0130121
0.013528
0.0140589
0.0146333
0.0152238
0.0158168
0.0164423
0.0171072
0.0177598
0.0183851
0.0190339
0.0196986
0.0203476
0.0210233
0.0217379
0.0224585
0.0231924
0.0239483
0.0247112
0.0254813
0.0262631
0.0270585
0.02787
0.0286983
0.0295474
0.0304142
0.0312936
0.0321857
0.033098
0.0340293
0.0349802
0.0359458
0.0369286
0.037928
0.0389521
0.0399961
0.0410631
0.0421446
0.0432483
0.0443715
0.0455215
0.0466899
0.0478837
0.0490955
0.0503321
0.051589
0.0528711
0.0541763
0.0555023
0.0568511
0.0582199
0.0596127
0.0610153
0.0624513
0.0638702
0.06522
0.0666228
-0.000213841
-0.00244045
-0.00727866
-0.0110067
-0.0112464
-0.00942318
-0.00732374
-0.00559297
-0.00427328
-0.00330344
-0.00268946
-0.00234553
-0.00201074
-0.00149687
-0.000878089
-0.000315756
0.000138884
0.000492019
0.000799318
0.00120267
0.00173708
0.00226608
0.00271501
0.00313662
0.00359355
0.0041063
0.00462949
0.00509731
0.00552276
0.00597079
0.00644827
0.00690572
0.00732254
0.00774102
0.00820427
0.00870497
0.00921324
0.00972899
0.0102729
0.0108363
0.0113924
0.0119364
0.0124783
0.0130126
0.0135285
0.0140593
0.0146337
0.0152242
0.0158171
0.0164427
0.0171075
0.0177602
0.0183854
0.0190342
0.0196989
0.0203479
0.0210236
0.0217381
0.0224588
0.0231927
0.0239485
0.0247115
0.0254816
0.0262633
0.0270587
0.0278702
0.0286985
0.0295476
0.0304144
0.0312938
0.0321859
0.0330982
0.0340295
0.0349803
0.035946
0.0369287
0.0379281
0.0389522
0.0399962
0.0410632
0.0421447
0.0432484
0.0443716
0.0455216
0.04669
0.0478838
0.0490956
0.0503321
0.051589
0.0528712
0.0541764
0.0555024
0.0568512
0.05822
0.0596128
0.0610154
0.0624514
0.0638703
0.0652201
0.066623
-0.000595445
-0.0025327
-0.00697941
-0.010653
-0.0110622
-0.00935431
-0.00729201
-0.00557143
-0.00425633
-0.00329113
-0.00268025
-0.00233612
-0.00199983
-0.00148607
-0.000869506
-0.000309883
0.000143223
0.000496178
0.000803511
0.00120636
0.00173994
0.00226833
0.00271716
0.0031389
0.00359577
0.00410826
0.00463124
0.00509894
0.00552429
0.00597221
0.00644956
0.00690687
0.00732356
0.00774193
0.00820511
0.00870576
0.00921401
0.00972971
0.0102735
0.010837
0.0113931
0.0119371
0.0124789
0.0130132
0.013529
0.0140598
0.0146342
0.0152246
0.0158175
0.0164431
0.0171079
0.0177606
0.0183858
0.0190345
0.0196993
0.0203482
0.0210239
0.0217384
0.0224591
0.023193
0.0239488
0.0247117
0.0254818
0.0262635
0.0270589
0.0278704
0.0286987
0.0295478
0.0304146
0.031294
0.032186
0.0330984
0.0340296
0.0349805
0.0359461
0.0369289
0.0379283
0.0389524
0.0399963
0.0410633
0.0421449
0.0432485
0.0443717
0.0455217
0.0466901
0.0478839
0.0490957
0.0503322
0.0515891
0.0528713
0.0541765
0.0555025
0.0568513
0.0582201
0.0596129
0.0610154
0.0624514
0.0638704
0.0652202
0.0666234
-0.000941875
-0.00261252
-0.00666014
-0.0102655
-0.0108511
-0.00927465
-0.00725592
-0.00554569
-0.00423503
-0.00327631
-0.0026705
-0.00232555
-0.00198547
-0.00147075
-0.000857338
-0.000302101
0.000148556
0.000501844
0.000810268
0.00121259
0.00174413
0.00227086
0.00271954
0.00314191
0.00359889
0.00411081
0.00463326
0.00510092
0.00552644
0.00597429
0.0064513
0.0069083
0.00732484
0.00774311
0.00820614
0.00870668
0.0092149
0.00973059
0.0102744
0.0108378
0.0113938
0.0119378
0.0124796
0.0130138
0.0135296
0.0140603
0.0146347
0.0152251
0.015818
0.0164435
0.0171084
0.0177611
0.0183862
0.0190349
0.0196996
0.0203486
0.0210242
0.0217388
0.0224594
0.0231932
0.0239491
0.024712
0.0254821
0.0262638
0.0270591
0.0278706
0.0286989
0.029548
0.0304148
0.0312942
0.0321862
0.0330985
0.0340298
0.0349806
0.0359463
0.036929
0.0379284
0.0389525
0.0399965
0.0410634
0.042145
0.0432486
0.0443718
0.0455218
0.0466903
0.047884
0.0490958
0.0503323
0.0515892
0.0528714
0.0541766
0.0555025
0.0568514
0.0582202
0.059613
0.0610155
0.0624515
0.0638705
0.0652204
0.0666239
-0.00126392
-0.00271422
-0.00635033
-0.00986109
-0.0106213
-0.00918855
-0.00721852
-0.00551772
-0.00421043
-0.00325904
-0.00265966
-0.00231373
-0.00196855
-0.0014522
-0.000842639
-0.00029308
0.000154491
0.000508996
0.000820105
0.00122226
0.00175043
0.00227409
0.00272237
0.00314587
0.00360319
0.00411404
0.00463541
0.00510312
0.00552926
0.00597724
0.00645371
0.00691022
0.00732663
0.0077448
0.00820751
0.00870777
0.00921594
0.00973165
0.0102754
0.0108387
0.0113948
0.0119388
0.0124804
0.0130145
0.0135302
0.0140609
0.0146353
0.0152257
0.0158185
0.016444
0.0171089
0.0177616
0.0183867
0.0190354
0.0197001
0.0203489
0.0210245
0.0217391
0.0224597
0.0231936
0.0239494
0.0247123
0.0254824
0.0262641
0.0270594
0.0278708
0.0286991
0.0295482
0.030415
0.0312944
0.0321864
0.0330987
0.03403
0.0349808
0.0359464
0.0369292
0.0379286
0.0389527
0.0399966
0.0410636
0.0421451
0.0432488
0.0443719
0.045522
0.0466904
0.0478841
0.0490959
0.0503324
0.0515893
0.0528715
0.0541767
0.0555026
0.0568515
0.0582203
0.0596131
0.0610156
0.0624516
0.0638707
0.0652207
0.0666246
-0.00157437
-0.00284679
-0.00605222
-0.00943774
-0.01037
-0.00909488
-0.00718001
-0.00548822
-0.00418304
-0.00323918
-0.0026472
-0.00230071
-0.00195011
-0.00143202
-0.000826893
-0.000283889
0.000160311
0.000517074
0.000832604
0.00123524
0.0017591
0.00227849
0.00272603
0.00315102
0.0036088
0.00411804
0.00463765
0.00510534
0.0055326
0.00598096
0.00645678
0.00691274
0.00732918
0.0077473
0.00820947
0.00870918
0.00921722
0.00973294
0.0102765
0.0108397
0.0113959
0.01194
0.0124815
0.0130154
0.013531
0.0140617
0.0146359
0.0152263
0.0158192
0.0164446
0.0171096
0.0177622
0.0183873
0.0190359
0.0197006
0.0203494
0.0210249
0.0217395
0.0224601
0.0231939
0.0239498
0.0247127
0.0254827
0.0262644
0.0270597
0.0278711
0.0286994
0.0295485
0.0304153
0.0312947
0.0321867
0.0330989
0.0340302
0.034981
0.0359466
0.0369294
0.0379287
0.0389528
0.0399968
0.0410637
0.0421453
0.0432489
0.0443721
0.0455221
0.0466905
0.0478843
0.049096
0.0503326
0.0515894
0.0528716
0.0541768
0.0555027
0.0568516
0.0582204
0.0596132
0.0610157
0.0624517
0.0638709
0.0652211
0.0666254
-0.00186976
-0.00299846
-0.00576246
-0.00899446
-0.0100954
-0.00899276
-0.00714094
-0.00545816
-0.00415332
-0.00321659
-0.00263288
-0.00228663
-0.00193074
-0.00141092
-0.000810603
-0.000274747
0.000165825
0.000525495
0.000846736
0.0012506
0.00176979
0.00228421
0.00273078
0.0031574
0.00361566
0.0041228
0.00464003
0.00510758
0.00553622
0.0059851
0.00646019
0.00691568
0.00733253
0.00775083
0.00821226
0.0087111
0.00921889
0.00973455
0.0102778
0.0108407
0.0113971
0.0119414
0.0124828
0.0130166
0.0135322
0.0140627
0.0146367
0.015227
0.0158199
0.0164454
0.0171103
0.0177629
0.018388
0.0190366
0.0197011
0.0203499
0.0210254
0.02174
0.0224605
0.0231944
0.0239502
0.0247131
0.0254831
0.0262648
0.02706
0.0278715
0.0286997
0.0295488
0.0304156
0.031295
0.0321869
0.0330992
0.0340304
0.0349812
0.0359469
0.0369296
0.0379289
0.038953
0.039997
0.0410639
0.0421455
0.0432491
0.0443722
0.0455222
0.0466907
0.0478844
0.0490961
0.0503327
0.0515896
0.0528717
0.0541769
0.0555029
0.0568517
0.0582205
0.0596133
0.0610159
0.0624519
0.0638711
0.0652216
0.0666266
-0.00213855
-0.00315892
-0.0054865
-0.00853697
-0.00979793
-0.00888151
-0.00710174
-0.00542832
-0.00412152
-0.00319108
-0.00261652
-0.00227151
-0.00191065
-0.00138905
-0.00079364
-0.000265245
0.000171408
0.000534103
0.000861679
0.00126733
0.00178189
0.00229111
0.00273658
0.00316488
0.00362355
0.00412825
0.00464269
0.00510994
0.00554002
0.00598937
0.00646354
0.0069187
0.00733645
0.00775535
0.008216
0.00871373
0.00922113
0.00973663
0.0102793
0.0108417
0.0113983
0.011943
0.0124843
0.013018
0.0135337
0.0140641
0.0146378
0.0152278
0.0158207
0.0164462
0.017111
0.0177637
0.0183889
0.0190374
0.0197018
0.0203505
0.021026
0.0217405
0.022461
0.0231949
0.0239508
0.0247136
0.0254836
0.0262652
0.0270605
0.0278719
0.0287001
0.0295492
0.0304159
0.0312953
0.0321873
0.0330995
0.0340307
0.0349815
0.0359471
0.0369299
0.0379292
0.0389532
0.0399972
0.0410641
0.0421457
0.0432493
0.0443724
0.0455224
0.0466908
0.0478846
0.0490963
0.0503328
0.0515897
0.0528718
0.0541771
0.055503
0.0568518
0.0582206
0.0596134