/*--------------------------------*- C++ -*----------------------------------*\
| =========                 |                                                 |
| \\      /  F ield         | OpenFOAM: The Open Source CFD Toolbox           |
|  \\    /   O peration     | Version:  2506                                  |
|   \\  /    A nd           | Website:  www.openfoam.com                      |
|    \\/     M anipulation  |                                                 |
\*---------------------------------------------------------------------------*/
FoamFile
{
    version     2.0;
    format      ascii;
    arch        "LSB;label=32;scalar=64";
    class       surfaceScalarField;
    location    "3.25";
    object      phi;
}
// * * * * * * * * * * * * * * * * * * * * * * * * * * * * * * * * * * * * * //

dimensions      [0 3 -1 0 0 0 0];

oriented        oriented;

internalField   nonuniform List<scalar> 
19000
(
1.17268e-06
-2.72401e-08
1.1606e-06
2.97604e-07
1.13402e-06
1.42919e-07
1.15812e-06
-9.29472e-07
1.23099e-06
-4.31445e-07
1.20365e-06
7.49766e-08
1.14951e-06
6.3296e-07
1.14542e-06
7.31999e-07
1.12341e-06
1.53141e-07
1.11557e-06
-6.09704e-07
1.1544e-06
-3.49985e-07
1.13125e-06
-1.1103e-06
1.17707e-06
-2.37437e-07
1.15491e-06
-6.80428e-07
1.18689e-06
-1.34824e-07
1.1561e-06
-1.0467e-07
1.17205e-06
1.94374e-07
1.15097e-06
3.04537e-07
1.13737e-06
2.7381e-07
3.01405e-07
1.11236e-06
1.22721e-06
-3.0189e-08
1.219e-06
3.05814e-07
1.18817e-06
1.73754e-07
1.21026e-06
-9.51567e-07
1.28504e-06
-5.06227e-07
1.26219e-06
9.7831e-08
1.19999e-06
6.95153e-07
1.20499e-06
7.27008e-07
1.18235e-06
1.75782e-07
1.17589e-06
-6.03248e-07
1.2062e-06
-3.80295e-07
1.18573e-06
-1.08983e-06
1.22477e-06
-2.76476e-07
1.21079e-06
-6.66455e-07
1.23265e-06
-1.56685e-07
1.22128e-06
-9.32912e-08
1.21147e-06
2.04183e-07
1.22351e-06
2.92494e-07
1.173e-06
3.2432e-07
2.79782e-07
1.19462e-06
1.28301e-06
-3.04177e-08
1.28007e-06
3.08759e-07
1.24717e-06
2.06651e-07
1.26593e-06
-9.70322e-07
1.33688e-06
-5.77184e-07
1.32427e-06
1.10444e-07
1.25715e-06
7.62269e-07
1.2637e-06
7.20459e-07
1.24815e-06
1.91338e-07
1.24226e-06
-5.97363e-07
1.26364e-06
-4.0167e-07
1.25082e-06
-1.07701e-06
1.27972e-06
-3.05381e-07
1.27769e-06
-6.64423e-07
1.28643e-06
-1.65423e-07
1.28798e-06
-9.48475e-08
1.26787e-06
2.243e-07
1.2781e-06
2.82261e-07
1.24484e-06
3.57582e-07
2.91936e-07
1.23268e-06
1.34104e-06
-2.73509e-08
1.3428e-06
3.06999e-07
1.31139e-06
2.38057e-07
1.32604e-06
-9.8497e-07
1.38766e-06
-6.3881e-07
1.38623e-06
1.11875e-07
1.3238e-06
8.24706e-07
1.32632e-06
7.17932e-07
1.31945e-06
1.98214e-07
1.31286e-06
-5.90779e-07
1.32531e-06
-4.14121e-07
1.31857e-06
-1.07026e-06
1.33987e-06
-3.26683e-07
1.34547e-06
-6.70024e-07
1.34854e-06
-1.68494e-07
1.35299e-06
-9.92969e-08
1.33746e-06
2.39832e-07
1.3357e-06
2.84024e-07
1.32098e-06
3.72298e-07
3.1466e-07
1.29826e-06
1.40264e-06
-2.16349e-08
1.40736e-06
3.02277e-07
1.38123e-06
2.64192e-07
1.39025e-06
-9.93996e-07
1.43916e-06
-6.87719e-07
1.44693e-06
1.04108e-07
1.39847e-06
8.73168e-07
1.39639e-06
7.20006e-07
1.39524e-06
1.99369e-07
1.38693e-06
-5.82467e-07
1.39185e-06
-4.19045e-07
1.38657e-06
-1.06499e-06
1.40301e-06
-3.43123e-07
1.41073e-06
-6.7774e-07
1.41373e-06
-1.7149e-07
1.41688e-06
-1.0245e-07
1.4087e-06
2.48012e-07
1.40086e-06
2.91861e-07
1.39384e-06
3.79327e-07
3.35754e-07
1.37274e-06
1.46889e-06
-1.48487e-08
1.47484e-06
2.96329e-07
1.45627e-06
2.82761e-07
1.45825e-06
-9.95974e-07
1.49321e-06
-7.22679e-07
1.50734e-06
8.99719e-08
1.47708e-06
9.03433e-07
1.47349e-06
7.23591e-07
1.47432e-06
1.98541e-07
1.46394e-06
-5.72091e-07
1.46311e-06
-4.18216e-07
1.45542e-06
-1.0573e-06
1.46819e-06
-3.5589e-07
1.47484e-06
-6.84389e-07
1.47901e-06
-1.75657e-07
1.48041e-06
-1.03852e-07
1.47767e-06
2.5075e-07
1.46856e-06
3.00977e-07
1.46575e-06
3.82136e-07
3.53777e-07
1.44772e-06
1.54003e-06
-8.6629e-09
1.54634e-06
2.90024e-07
1.53539e-06
2.93711e-07
1.52995e-06
-9.90534e-07
1.55129e-06
-7.44025e-07
1.56907e-06
7.21985e-08
1.55629e-06
9.1621e-07
1.55482e-06
7.25056e-07
1.55565e-06
1.97719e-07
1.54342e-06
-5.59868e-07
1.53845e-06
-4.13245e-07
1.52657e-06
-1.04542e-06
1.53585e-06
-3.65172e-07
1.53978e-06
-6.88317e-07
1.54485e-06
-1.8072e-07
1.54473e-06
-1.03737e-07
1.54614e-06
2.49335e-07
1.53743e-06
3.09687e-07
1.53874e-06
3.80828e-07
3.6861e-07
1.52391e-06
1.61551e-06
-4.04882e-09
1.62221e-06
2.83332e-07
1.61731e-06
2.98604e-07
1.60541e-06
-9.78626e-07
1.61451e-06
-7.53131e-07
1.63347e-06
5.32388e-08
1.635e-06
9.14683e-07
1.63789e-06
7.22166e-07
1.63842e-06
1.97184e-07
1.625e-06
-5.46448e-07
1.61723e-06
-4.0547e-07
1.60105e-06
-1.02924e-06
1.60693e-06
-3.71058e-07
1.60706e-06
-6.88442e-07
1.61274e-06
-1.86404e-07
1.61125e-06
-1.02247e-07
1.61658e-06
2.44004e-07
1.60896e-06
3.17313e-07
1.61436e-06
3.75421e-07
3.79861e-07
1.60311e-06
1.69461e-06
-1.08195e-09
1.70203e-06
2.75912e-07
1.70122e-06
2.99413e-07
1.68466e-06
-9.6207e-07
1.68362e-06
-7.52088e-07
1.70175e-06
3.5103e-08
1.7139e-06
9.02539e-07
1.72172e-06
7.1434e-07
1.72234e-06
1.96567e-07
1.70851e-06
-5.32619e-07
1.69911e-06
-3.96067e-07
1.6793e-06
-1.00943e-06
1.68217e-06
-3.73935e-07
1.6778e-06
-6.84068e-07
1.68395e-06
-1.92555e-07
1.68114e-06
-9.94315e-08
1.6905e-06
2.34644e-07
1.68451e-06
3.23302e-07
1.69352e-06
3.66406e-07
3.87253e-07
1.68613e-06
1.77693e-06
7.10038e-10
1.7852e-06
2.67644e-07
1.78693e-06
2.97684e-07
1.7677e-06
-9.42845e-07
1.75899e-06
-7.43375e-07
1.775e-06
1.90967e-08
1.79443e-06
8.83107e-07
1.80663e-06
7.02135e-07
1.80767e-06
1.95532e-07
1.79401e-06
-5.18957e-07
1.78402e-06
-3.86077e-07
1.76146e-06
-9.86869e-07
1.762e-06
-3.7448e-07
1.75286e-06
-6.74921e-07
1.75934e-06
-1.99039e-07
1.75515e-06
-9.52454e-08
1.76844e-06
2.21362e-07
1.76451e-06
3.27232e-07
1.77625e-06
3.5466e-07
3.90712e-07
1.77279e-06
1.86257e-06
1.88878e-09
1.87147e-06
2.5874e-07
1.87484e-06
2.9432e-07
1.85454e-06
-9.22544e-07
1.84059e-06
-7.29425e-07
1.85394e-06
5.74028e-09
1.87792e-06
8.59127e-07
1.89343e-06
6.86632e-07
1.89505e-06
1.93908e-07
1.88177e-06
-5.05682e-07
1.87203e-06
-3.76333e-07
1.84752e-06
-9.62357e-07
1.84658e-06
-3.73538e-07
1.83278e-06
-6.61123e-07
1.83945e-06
-2.05713e-07
1.83377e-06
-8.95611e-08
1.85037e-06
2.04761e-07
1.84867e-06
3.28929e-07
1.86196e-06
3.41377e-07
3.90289e-07
1.86238e-06
1.95188e-06
2.85217e-09
1.96106e-06
2.49555e-07
1.96563e-06
2.89749e-07
1.94523e-06
-9.02144e-07
1.92804e-06
-7.12234e-07
1.9388e-06
-5.02209e-09
1.96524e-06
8.32692e-07
1.98291e-06
6.68962e-07
1.98524e-06
1.9158e-07
1.97229e-06
-4.9274e-07
1.96337e-06
-3.67412e-07
1.93747e-06
-9.36455e-07
1.93589e-06
-3.71952e-07
1.91788e-06
-6.43118e-07
1.9246e-06
-2.12432e-07
1.91727e-06
-8.22343e-08
1.93608e-06
1.85953e-07
1.93655e-06
3.2846e-07
1.94996e-06
3.27963e-07
3.86076e-07
1.95418e-06
2.04524e-06
3.80379e-09
2.05443e-06
2.40366e-07
2.06001e-06
2.84162e-07
2.03993e-06
-8.82062e-07
2.02087e-06
-6.93176e-07
2.02936e-06
-1.35088e-08
2.05679e-06
8.05259e-07
2.07573e-06
6.50024e-07
2.07892e-06
1.88387e-07
2.06613e-06
-4.79945e-07
2.05836e-06
-3.59643e-07
2.03137e-06
-9.09466e-07
2.02983e-06
-3.7041e-07
2.00826e-06
-6.21546e-07
2.0149e-06
-2.19073e-07
2.00588e-06
-7.32142e-08
2.02548e-06
1.66347e-07
2.02794e-06
3.26007e-07
2.04006e-06
3.15838e-07
3.7822e-07
2.04792e-06
2.14299e-06
4.81784e-09
2.15206e-06
2.31297e-07
2.15854e-06
2.7768e-07
2.1388e-06
-8.62324e-07
2.11869e-06
-6.73065e-07
2.12527e-06
-2.00878e-08
2.15283e-06
7.77694e-07
2.17245e-06
6.3041e-07
2.1767e-06
1.8413e-07
2.16385e-06
-4.67087e-07
2.15736e-06
-3.53155e-07
2.1294e-06
-8.81504e-07
2.12834e-06
-3.6935e-07
2.10389e-06
-5.97104e-07
2.11035e-06
-2.25524e-07
2.09978e-06
-6.26524e-08
2.11878e-06
1.47351e-07
2.12307e-06
3.21715e-07
2.13291e-06
3.06e-07
3.67157e-07
2.14397e-06
2.2454e-06
5.90296e-09
2.25435e-06
2.22352e-07
2.26159e-06
2.70434e-07
2.24204e-06
-8.42767e-07
2.22132e-06
-6.52344e-07
2.22633e-06
-2.51031e-08
2.25365e-06
7.50373e-07
2.27359e-06
6.10473e-07
2.27907e-06
1.78649e-07
2.26595e-06
-4.53964e-07
2.26072e-06
-3.47929e-07
2.23181e-06
-8.52598e-07
2.23142e-06
-3.6896e-07
2.20478e-06
-5.70456e-07
2.21089e-06
-2.31642e-07
2.19918e-06
-5.09344e-08
2.21638e-06
1.30144e-07
2.2225e-06
3.15593e-07
2.22975e-06
2.98756e-07
3.5374e-07
2.24317e-06
2.35274e-06
7.03881e-09
2.36161e-06
2.13477e-07
2.36947e-06
2.62576e-07
2.34988e-06
-8.23171e-07
2.3288e-06
-6.31268e-07
2.33257e-06
-2.8867e-08
2.35962e-06
7.23317e-07
2.37966e-06
5.90434e-07
2.38644e-06
1.71873e-07
2.37286e-06
-4.40382e-07
2.36877e-06
-3.43842e-07
2.33894e-06
-8.22766e-07
2.3392e-06
-3.69227e-07
2.31096e-06
-5.42215e-07
2.31653e-06
-2.37211e-07
2.30426e-06
-3.86656e-08
2.3188e-06
1.15605e-07
2.32687e-06
3.07529e-07
2.33172e-06
2.93899e-07
3.39008e-07
2.34646e-06
2.46524e-06
8.19376e-09
2.4741e-06
2.04613e-07
2.48242e-06
2.54258e-07
2.4626e-06
-8.03345e-07
2.44135e-06
-6.10023e-07
2.44413e-06
-3.1647e-08
2.47111e-06
6.96334e-07
2.49109e-06
5.70456e-07
2.49913e-06
1.63832e-07
2.48493e-06
-4.26177e-07
2.48179e-06
-3.40704e-07
2.4511e-06
-7.92074e-07
2.45186e-06
-3.69985e-07
2.42259e-06
-5.12945e-07
2.42737e-06
-2.41994e-07
2.41522e-06
-2.65177e-08
2.42658e-06
1.04244e-07
2.43668e-06
2.97432e-07
2.43966e-06
2.90916e-07
3.23945e-07
2.45473e-06
2.58315e-06
9.33368e-09
2.59204e-06
1.95724e-07
2.6007e-06
2.45601e-07
2.5805e-06
-7.83142e-07
2.55924e-06
-5.88771e-07
2.56124e-06
-3.36396e-08
2.58842e-06
6.69149e-07
2.6082e-06
5.50678e-07
2.61741e-06
1.54625e-07
2.60247e-06
-4.1124e-07
2.60005e-06
-3.3828e-07
2.56863e-06
-7.6066e-07
2.5696e-06
-3.70957e-07
2.53986e-06
-4.83203e-07
2.54356e-06
-2.45693e-07
2.53224e-06
-1.51936e-08
2.54025e-06
9.62311e-08
2.55228e-06
2.85406e-07
2.55414e-06
2.89052e-07
3.09397e-07
2.56869e-06
2.70674e-06
1.04265e-08
2.71565e-06
1.86807e-07
2.72458e-06
2.36678e-07
2.70389e-06
-7.6246e-07
2.68279e-06
-5.67664e-07
2.6841e-06
-3.49538e-08
2.71175e-06
6.41503e-07
2.73121e-06
5.31219e-07
2.74146e-06
1.44374e-07
2.72576e-06
-3.95545e-07
2.72379e-06
-3.36305e-07
2.69188e-06
-7.28748e-07
2.69271e-06
-3.71788e-07
2.66303e-06
-4.53521e-07
2.66532e-06
-2.47984e-07
2.65545e-06
-5.32975e-09
2.66028e-06
9.1405e-08
2.67386e-06
2.71819e-07
2.67549e-06
2.87431e-07
2.96019e-07
2.68886e-06
2.83625e-06
1.14437e-08
2.84517e-06
1.77889e-07
2.85434e-06
2.27509e-07
2.8331e-06
-7.41221e-07
2.81229e-06
-5.46852e-07
2.81295e-06
-3.56184e-08
2.84125e-06
6.13204e-07
2.8603e-06
5.12167e-07
2.87146e-06
1.33212e-07
2.85508e-06
-3.79159e-07
2.85326e-06
-3.34485e-07
2.82115e-06
-6.9664e-07
2.82146e-06
-3.72098e-07
2.79231e-06
-4.24375e-07
2.79291e-06
-2.48579e-07
2.78495e-06
2.6299e-09
2.78701e-06
8.93412e-08
2.80164e-06
2.57195e-07
2.80382e-06
2.85253e-07
2.84221e-07
2.81562e-06
2.97198e-06
1.23609e-08
2.98084e-06
1.69025e-07
2.99029e-06
2.18061e-07
2.96842e-06
-7.19352e-07
2.94805e-06
-5.2648e-07
2.94804e-06
-3.56111e-08
2.9771e-06
5.84145e-07
2.9957e-06
4.93573e-07
3.00762e-06
1.21291e-07
2.9907e-06
-3.62246e-07
2.98872e-06
-3.32501e-07
2.95677e-06
-6.64692e-07
2.95619e-06
-3.71513e-07
2.92797e-06
-3.96154e-07
2.92667e-06
-2.47285e-07
2.9208e-06
8.50444e-09
2.92068e-06
8.94615e-08
2.93579e-06
2.42085e-07
2.93911e-06
2.81928e-07
2.74142e-07
2.94919e-06
3.11421e-06
1.31564e-08
3.12294e-06
1.60297e-07
3.13274e-06
2.08263e-07
3.11016e-06
-6.96779e-07
3.09038e-06
-5.06692e-07
3.08966e-06
-3.48924e-08
3.1195e-06
5.54304e-07
3.13764e-06
4.75433e-07
3.15013e-06
1.08795e-07
3.13294e-06
-3.4505e-07
3.13045e-06
-3.30009e-07
3.09902e-06
-6.33267e-07
3.09724e-06
-3.69731e-07
3.07022e-06
-3.69132e-07
3.06696e-06
-2.44023e-07
3.0631e-06
1.23603e-08
3.06141e-06
9.11514e-08
3.07652e-06
2.26978e-07
3.08132e-06
2.77121e-07
2.65674e-07
3.08979e-06
3.26326e-06
1.3811e-08
3.27175e-06
1.51804e-07
3.282e-06
1.98015e-07
3.25864e-06
-6.73427e-07
3.23957e-06
-4.8762e-07
3.23811e-06
-3.34339e-08
3.26869e-06
5.23729e-07
3.28643e-06
4.57692e-07
3.29927e-06
9.59525e-08
3.2821e-06
-3.27881e-07
3.27875e-06
-3.26661e-07
3.24817e-06
-6.0268e-07
3.245e-06
-3.66564e-07
3.21931e-06
-3.43439e-07
3.21411e-06
-2.3883e-07
3.21207e-06
1.43997e-08
3.20934e-06
9.38852e-08
3.22403e-06
2.12286e-07
3.23051e-06
2.70648e-07
2.58574e-07
3.23761e-06
3.41944e-06
1.43069e-08
3.42758e-06
1.43659e-07
3.43839e-06
1.87202e-07
3.4142e-06
-6.49231e-07
3.39595e-06
-4.6937e-07
3.39375e-06
-3.12392e-08
3.42494e-06
4.92538e-07
3.4424e-06
4.40231e-07
3.45532e-06
8.30388e-08
3.43851e-06
-3.11075e-07
3.434e-06
-3.22147e-07
3.40447e-06
-5.73151e-07
3.39986e-06
-3.61952e-07
3.37549e-06
-3.19075e-07
3.36849e-06
-2.31832e-07
3.36801e-06
1.4882e-08
3.36466e-06
9.72343e-08
3.37857e-06
1.9838e-07
3.38682e-06
2.62394e-07
2.52523e-07
3.39288e-06
3.58309e-06
1.46289e-08
3.59077e-06
1.35973e-07
3.60226e-06
1.75718e-07
3.57719e-06
-6.24158e-07
3.55982e-06
-4.52008e-07
3.55694e-06
-2.8359e-08
3.58857e-06
4.60916e-07
3.60593e-06
4.2287e-07
3.6186e-06
7.03637e-08
3.60251e-06
-2.94978e-07
3.59659e-06
-3.16228e-07
3.56821e-06
-5.4477e-07
3.56221e-06
-3.55951e-07
3.53908e-06
-2.9595e-07
3.53044e-06
-2.2319e-07
3.53127e-06
1.40536e-08
3.52766e-06
1.00841e-07
3.54042e-06
1.85623e-07
3.5505e-06
2.52311e-07
2.47122e-07
3.5559e-06
3.75457e-06
1.47635e-08
3.7617e-06
1.28847e-07
3.77393e-06
1.63482e-07
3.748e-06
-5.98222e-07
3.73153e-06
-4.35544e-07
3.72807e-06
-2.48986e-08
3.75988e-06
4.29104e-07
3.77737e-06
4.05382e-07
3.78948e-06
5.82502e-08
3.77441e-06
-2.799e-07
3.76696e-06
-3.08786e-07
3.73967e-06
-5.17475e-07
3.73244e-06
-3.48725e-07
3.71041e-06
-2.73919e-07
3.70032e-06
-2.13098e-07
3.70222e-06
1.21536e-08
3.69873e-06
1.04327e-07
3.70994e-06
1.74419e-07
3.72175e-06
2.40496e-07
2.41839e-07
3.72704e-06
3.93425e-06
1.47004e-08
3.94075e-06
1.2235e-07
3.95376e-06
1.50467e-07
3.92704e-06
-5.71496e-07
3.91142e-06
-4.19922e-07
3.90754e-06
-2.10233e-08
3.93924e-06
3.97404e-07
3.95711e-06
3.87509e-07
3.96836e-06
4.70033e-08
3.95453e-06
-2.66066e-07
3.94558e-06
-2.99836e-07
3.91919e-06
-4.91086e-07
3.91096e-06
-3.40502e-07
3.88989e-06
-2.52843e-07
3.8785e-06
-2.01713e-07
3.88127e-06
9.38682e-09
3.87825e-06
1.07351e-07
3.88763e-06
1.65034e-07
3.90081e-06
2.27321e-07
2.36049e-07
3.9066e-06
4.12252e-06
1.44337e-08
4.12835e-06
1.1652e-07
4.14211e-06
1.36709e-07
4.11473e-06
-5.44125e-07
4.09983e-06
-4.05018e-07
4.09577e-06
-1.69675e-08
4.12701e-06
3.66167e-07
4.14554e-06
3.68984e-07
4.15566e-06
3.68812e-08
4.14316e-06
-2.53572e-07
4.13287e-06
-2.89538e-07
4.10714e-06
-4.65359e-07
4.09813e-06
-3.31487e-07
4.07796e-06
-2.32682e-07
4.06539e-06
-1.89137e-07
4.06879e-06
5.98851e-09
4.06657e-06
1.09571e-07
4.07405e-06
1.57552e-07
4.08794e-06
2.13431e-07
2.29139e-07
4.09485e-06
4.31977e-06
1.39647e-08
4.32493e-06
1.11358e-07
4.33934e-06
1.22305e-07
4.31153e-06
-5.16314e-07
4.29715e-06
-3.90644e-07
4.29321e-06
-1.30247e-08
4.3236e-06
3.35777e-07
4.34302e-06
3.49561e-07
4.35185e-06
2.80572e-08
4.34066e-06
-2.4238e-07
4.32927e-06
-2.78148e-07
4.30395e-06
-4.40048e-07
4.29431e-06
-3.21841e-07
4.27509e-06
-2.13463e-07
4.26143e-06
-1.75476e-07
4.26518e-06
2.23892e-09
4.26403e-06
1.10723e-07
4.26978e-06
1.51803e-07
4.28356e-06
1.99643e-07
2.20676e-07
4.29203e-06
4.52643e-06
1.33041e-08
4.53096e-06
1.06828e-07
4.54584e-06
1.07426e-07
4.51787e-06
-4.88342e-07
4.50379e-06
-3.7656e-07
4.50029e-06
-9.52881e-09
4.52946e-06
3.06607e-07
4.54993e-06
3.29092e-07
4.55743e-06
2.05532e-08
4.54737e-06
-2.32312e-07
4.5352e-06
-2.65981e-07
4.51009e-06
-4.14938e-07
4.4999e-06
-3.11648e-07
4.48174e-06
-1.95303e-07
4.46708e-06
-1.60818e-07
4.47087e-06
-1.55111e-09
4.47101e-06
1.10583e-07
4.47533e-06
1.47479e-07
4.48826e-06
1.86713e-07
2.10582e-07
4.49836e-06
4.74295e-06
1.24738e-08
4.74692e-06
1.02854e-07
4.76203e-06
9.23177e-08
4.73424e-06
-4.60558e-07
4.72016e-06
-3.62473e-07
4.71746e-06
-6.83147e-09
4.74508e-06
2.78985e-07
4.76658e-06
3.0759e-07
4.77293e-06
1.42091e-08
4.76373e-06
-2.23118e-07
4.7511e-06
-2.53344e-07
4.72603e-06
-3.89869e-07
4.7153e-06
-3.00926e-07
4.69834e-06
-1.78337e-07
4.68283e-06
-1.45311e-07
4.68634e-06
-5.06104e-09
4.68787e-06
1.09058e-07
4.69117e-06
1.44176e-07
4.70275e-06
1.75135e-07
1.99208e-07
4.71412e-06
4.96976e-06
1.15087e-08
4.9733e-06
9.9321e-08
4.9883e-06
7.73109e-08
4.96113e-06
-4.33382e-07
4.94672e-06
-3.48067e-07
4.94516e-06
-5.27016e-09
4.971e-06
2.53141e-07
4.99331e-06
2.85285e-07
4.99881e-06
8.71034e-09
4.99024e-06
-2.14554e-07
4.9774e-06
-2.40498e-07
4.95226e-06
-3.64735e-07
4.941e-06
-2.89664e-07
4.9253e-06
-1.62632e-07
4.90923e-06
-1.29245e-07
4.91209e-06
-7.91926e-09
4.91502e-06
1.0613e-07
4.91771e-06
1.41479e-07
4.92775e-06
1.65101e-07
1.8721e-07
4.93975e-06
5.20737e-06
1.04592e-08
5.21063e-06
9.60606e-08
5.2251e-06
6.28412e-08
5.199e-06
-4.0729e-07
5.184e-06
-3.33066e-07
5.18382e-06
-5.08374e-09
5.20789e-06
2.29069e-07
5.23055e-06
2.6262e-07
5.23553e-06
3.73332e-09
5.22742e-06
-2.06442e-07
5.21456e-06
-2.27639e-07
5.18933e-06
-3.39507e-07
5.17745e-06
-2.77781e-07
5.16308e-06
-1.48262e-07
5.14672e-06
-1.12885e-07
5.14867e-06
-9.87124e-09
5.15289e-06
1.0191e-07
5.15538e-06
1.38993e-07
5.16389e-06
1.56583e-07
1.75277e-07
5.17583e-06
5.45626e-06
9.38928e-09
5.45946e-06
9.28592e-08
5.47282e-06
4.94827e-08
5.44835e-06
-3.82818e-07
5.43259e-06
-3.17309e-07
5.43382e-06
-6.31825e-09
5.45644e-06
2.0645e-07
5.47896e-06
2.40104e-07
5.48356e-06
-8.72397e-10
5.47578e-06
-1.98656e-07
5.46307e-06
-2.14926e-07
5.43776e-06
-3.14203e-07
5.42515e-06
-2.65169e-07
5.41214e-06
-1.35257e-07
5.39577e-06
-9.65119e-08
5.39663e-06
-1.07352e-08
5.40199e-06
9.65545e-08
5.40459e-06
1.36393e-07
5.41178e-06
1.49398e-07
1.63986e-07
5.42307e-06
5.71698e-06
8.37114e-09
5.72036e-06
8.94739e-08
5.7319e-06
3.79479e-08
5.70957e-06
-3.60495e-07
5.69318e-06
-3.00916e-07
5.6955e-06
-8.64173e-09
5.71731e-06
1.84647e-07
5.73931e-06
2.18101e-07
5.74344e-06
-5.00542e-09
5.73586e-06
-1.91071e-07
5.72336e-06
-2.02433e-07
5.69808e-06
-2.88913e-07
5.6846e-06
-2.5169e-07
5.67295e-06
-1.23612e-07
5.65692e-06
-8.04845e-08
5.65654e-06
-1.03494e-08
5.66285e-06
9.02464e-08
5.66585e-06
1.33392e-07
5.6719e-06
1.43346e-07
1.53657e-07
5.68223e-06
5.99009e-06
7.47692e-09
5.99391e-06
8.56512e-08
6.00286e-06
2.89947e-08
5.98308e-06
-3.40715e-07
5.96656e-06
-2.84395e-07
5.9693e-06
-1.13805e-08
5.99082e-06
1.63128e-07
6.01242e-06
1.96499e-07
6.01578e-06
-8.359e-09
6.00813e-06
-1.83427e-07
5.99586e-06
-1.90159e-07
5.97076e-06
-2.63815e-07
5.95627e-06
-2.37199e-07
5.94597e-06
-1.13314e-07
5.93073e-06
-6.52427e-08
5.92902e-06
-8.63724e-09
5.93599e-06
8.32729e-08
5.93966e-06
1.29728e-07
5.94482e-06
1.38187e-07
1.4443e-07
5.95404e-06
6.2762e-06
6.76732e-09
6.28068e-06
8.11687e-08
6.28695e-06
2.27217e-08
6.26925e-06
-3.23009e-07
6.25342e-06
-2.68564e-07
6.25587e-06
-1.38307e-08
6.2772e-06
1.41796e-07
6.29864e-06
1.7506e-07
6.30086e-06
-1.05785e-08
6.2927e-06
-1.7527e-07
6.28074e-06
-1.78204e-07
6.25617e-06
-2.39241e-07
6.24073e-06
-2.21756e-07
6.23173e-06
-1.04317e-07
6.21774e-06
-5.12555e-08
6.21477e-06
-5.66557e-09
6.22198e-06
7.606e-08
6.22657e-06
1.25136e-07
6.23105e-06
1.33707e-07
1.36313e-07
6.23917e-06
6.57596e-06
6.27515e-09
6.58128e-06
7.58486e-08
6.58556e-06
1.8448e-08
6.56857e-06
-3.06018e-07
6.55428e-06
-2.5428e-07
6.55598e-06
-1.55262e-08
6.57633e-06
1.21438e-07
6.59725e-06
1.54141e-07
6.59805e-06
-1.13773e-08
6.58934e-06
-1.66556e-07
6.57821e-06
-1.67077e-07
6.55476e-06
-2.15794e-07
6.53866e-06
-2.05648e-07
6.53087e-06
-9.65341e-08
6.5185e-06
-3.88774e-08
6.51446e-06
-1.62782e-09
6.52148e-06
6.90347e-08
6.52711e-06
1.19506e-07
6.53122e-06
1.29603e-07
1.29287e-07
6.53824e-06
6.89006e-06
6.00382e-09
6.89636e-06
6.95518e-08
6.89915e-06
1.56526e-08
6.88185e-06
-2.8871e-07
6.86951e-06
-2.41942e-07
6.87062e-06
-1.66432e-08
6.88866e-06
1.03403e-07
6.90866e-06
1.34139e-07
6.90887e-06
-1.15897e-08
6.89934e-06
-1.57027e-07
6.88925e-06
-1.56983e-07
6.86739e-06
-1.93929e-07
6.85098e-06
-1.89242e-07
6.84413e-06
-8.96814e-08
6.83355e-06
-2.83027e-08
6.82877e-06
3.15516e-09
6.83519e-06
6.26116e-08
6.84181e-06
1.12884e-07
6.84587e-06
1.25545e-07
1.23287e-07
6.85187e-06
7.21921e-06
5.93455e-09
7.22665e-06
6.21027e-08
7.22826e-06
1.40457e-08
7.21009e-06
-2.70536e-07
7.19959e-06
-2.31448e-07
7.20065e-06
-1.76998e-08
7.21621e-06
8.78413e-08
7.23559e-06
1.14765e-07
7.23547e-06
-1.14713e-08
7.22476e-06
-1.46314e-07
7.21512e-06
-1.47347e-07
7.19507e-06
-1.73875e-07
7.17855e-06
-1.72726e-07
7.17228e-06
-8.34151e-08
7.16353e-06
-1.95461e-08
7.15837e-06
8.31057e-09
7.16385e-06
5.71341e-08
7.17125e-06
1.05479e-07
7.17559e-06
1.21205e-07
1.18173e-07
7.18071e-06
7.56414e-06
6.01748e-09
7.57294e-06
5.33019e-08
7.57358e-06
1.34102e-08
7.55438e-06
-2.51335e-07
7.54518e-06
-2.22248e-07
7.54714e-06
-1.9664e-08
7.56017e-06
7.48152e-08
7.57878e-06
9.61535e-08
7.5785e-06
-1.11887e-08
7.5664e-06
-1.34221e-07
7.55681e-06
-1.37757e-07
7.53861e-06
-1.55674e-07
7.5222e-06
-1.56311e-07
7.51619e-06
-7.74053e-08
7.50914e-06
-1.24989e-08
7.50391e-06
1.35385e-08
7.50828e-06
5.27668e-08
7.5161e-06
9.76622e-08
7.52097e-06
1.16327e-07
1.13701e-07
7.52545e-06
7.92568e-06
6.15309e-09
7.93533e-06
4.36433e-08
7.93615e-06
1.25905e-08
7.91572e-06
-2.30896e-07
7.90762e-06
-2.14153e-07
7.91122e-06
-2.32603e-08
7.92319e-06
6.2842e-08
7.94052e-06
7.88278e-08
7.93832e-06
-8.99208e-09
7.92499e-06
-1.20896e-07
7.91523e-06
-1.27993e-07
7.8988e-06
-1.3924e-07
7.88268e-06
-1.40198e-07
7.87669e-06
-7.14059e-08
7.87112e-06
-6.9336e-09
7.86612e-06
1.85396e-08
7.86932e-06
4.95702e-08
7.87715e-06
8.98321e-08
7.88267e-06
1.10803e-07
1.09557e-07
7.88681e-06
8.30461e-06
6.2234e-09
8.31429e-06
3.39652e-08
8.31726e-06
9.61583e-09
8.29572e-06
-2.09349e-07
8.28804e-06
-2.06481e-07
8.29305e-06
-2.82652e-08
8.30411e-06
5.17778e-08
8.3173e-06
6.56458e-08
8.3145e-06
-6.19931e-09
8.30134e-06
-1.0773e-07
8.29137e-06
-1.18026e-07
8.2763e-06
-1.2417e-07
8.26072e-06
-1.24617e-07
8.25456e-06
-6.52471e-08
8.25028e-06
-2.6552e-09
8.24574e-06
2.30751e-08
8.24782e-06
4.74914e-08
8.2553e-06
8.23559e-08
8.26141e-06
1.04694e-07
1.05412e-07
8.26555e-06
8.70175e-06
6.13289e-09
8.71103e-06
2.46857e-08
8.71609e-06
4.55359e-09
8.69527e-06
-1.88527e-07
8.68524e-06
-1.96444e-07
8.6858e-06
-2.88299e-08
8.69083e-06
4.67436e-08
8.70459e-06
5.18877e-08
8.70765e-06
-9.25917e-09
8.69631e-06
-9.63882e-08
8.68595e-06
-1.07667e-07
8.67186e-06
-1.10078e-07
8.65696e-06
-1.09717e-07
8.65063e-06
-5.89121e-08
8.64744e-06
5.30758e-10
8.64359e-06
2.69235e-08
8.64472e-06
4.63609e-08
8.65156e-06
7.55156e-08
8.65809e-06
9.81679e-08
1.01042e-07
8.66246e-06
9.11798e-06
5.76744e-09
9.12649e-06
1.61824e-08
9.13244e-06
-1.40263e-09
9.10949e-06
-1.65573e-07
9.09408e-06
-1.81035e-07
9.09797e-06
-3.27165e-08
9.10481e-06
3.9903e-08
9.11652e-06
4.01764e-08
9.12006e-06
-1.27963e-08
9.11033e-06
-8.66605e-08
9.09983e-06
-9.71691e-08
9.08653e-06
-9.67783e-08
9.07234e-06
-9.55261e-08
9.06587e-06
-5.24457e-08
9.06347e-06
2.93763e-09
9.06045e-06
2.99434e-08
9.06089e-06
4.59226e-08
9.06687e-06
6.95301e-08
9.07359e-06
9.14512e-08
9.63426e-08
9.07829e-06
9.55417e-06
5.05314e-09
9.56118e-06
9.17211e-09
9.56788e-06
-8.09696e-09
9.54593e-06
-1.43625e-07
9.5301e-06
-1.65199e-07
9.53386e-06
-3.64814e-08
9.54036e-06
3.34016e-08
9.54942e-06
3.11133e-08
9.55247e-06
-1.58415e-08
9.54401e-06
-7.82054e-08
9.53384e-06
-8.6991e-08
9.52131e-06
-8.42512e-08
9.50782e-06
-8.20356e-08
9.50125e-06
-4.58756e-08
9.49935e-06
4.83808e-09
9.49721e-06
3.20839e-08
9.49718e-06
4.59526e-08
9.50221e-06
6.4498e-08
9.50887e-06
8.47935e-08
9.13242e-08
9.51389e-06
1.00112e-05
3.98916e-09
1.00165e-05
3.85041e-09
1.00241e-05
-1.56444e-08
1.00046e-05
-1.24164e-07
9.98737e-06
-1.47967e-07
9.99029e-06
-3.93981e-08
9.99677e-06
2.69255e-08
1.00038e-05
2.40461e-08
1.00058e-05
-1.7803e-08
9.99836e-06
-7.07719e-08
9.98883e-06
-7.74578e-08
9.97712e-06
-7.25388e-08
9.9644e-06
-6.93202e-08
9.95767e-06
-3.91462e-08
9.95606e-06
6.44589e-09
9.95475e-06
3.33978e-08
9.95453e-06
4.61724e-08
9.9586e-06
6.04239e-08
9.96497e-06
7.84325e-08
8.60605e-08
9.97023e-06
1.049e-05
2.58008e-09
1.04939e-05
-3.01652e-11
1.05016e-05
-2.33448e-08
1.04853e-05
-1.07876e-07
1.04669e-05
-1.29564e-07
1.04684e-05
-4.0824e-08
1.04749e-05
2.03905e-08
1.04805e-05
1.84172e-08
1.04812e-05
-1.85242e-08
1.04744e-05
-6.3941e-08
1.04657e-05
-6.87004e-08
1.04549e-05
-6.17628e-08
1.0443e-05
-5.74167e-08
1.04362e-05
-3.23676e-08
1.04347e-05
7.97624e-09
1.04341e-05
3.39871e-08
1.04339e-05
4.63328e-08
1.04371e-05
5.72103e-08
1.0443e-05
7.25616e-08
8.06768e-08
1.04484e-05
1.09917e-05
8.84672e-10
1.09944e-05
-2.67742e-09
1.10017e-05
-3.06594e-08
1.09886e-05
-9.47701e-08
1.09696e-05
-1.10589e-07
1.09692e-05
-4.04247e-08
1.09757e-05
1.3909e-08
1.09804e-05
1.36627e-08
1.098e-05
-1.80919e-08
1.09734e-05
-5.72953e-08
1.09653e-05
-6.06954e-08
1.09556e-05
-5.2042e-08
1.09446e-05
-4.64149e-08
1.09379e-05
-2.56566e-08
1.09363e-05
9.59056e-09
1.09362e-05
3.40546e-08
1.09363e-05
4.625e-08
1.09388e-05
5.4689e-08
1.09441e-05
6.73129e-08
7.53145e-08
1.09494e-05
1.15172e-05
-9.98176e-10
1.15189e-05
-4.29857e-09
1.15252e-05
-3.70199e-08
1.15147e-05
-8.42916e-08
1.14962e-05
-9.20066e-08
1.1494e-05
-3.82902e-08
1.15002e-05
7.77466e-09
1.15045e-05
9.33977e-09
1.15032e-05
-1.67588e-08
1.14964e-05
-5.05775e-08
1.1489e-05
-5.32474e-08
1.14804e-05
-4.34082e-08
1.14704e-05
-3.64158e-08
1.14638e-05
-1.91296e-08
1.14621e-05
1.13299e-08
1.14623e-05
3.38166e-08
1.14628e-05
4.58174e-08
1.14648e-05
5.2641e-08
1.14694e-05
6.27459e-08
7.01107e-08
1.14746e-05
1.20677e-05
-2.92015e-09
1.20685e-05
-5.07093e-09
1.20732e-05
-4.16547e-08
1.20647e-05
-7.58354e-08
1.20477e-05
-7.50499e-08
1.20442e-05
-3.47492e-08
1.20496e-05
2.40429e-09
1.20537e-05
5.23793e-09
1.20518e-05
-1.492e-08
1.20449e-05
-4.36918e-08
1.20378e-05
-4.60967e-08
1.20302e-05
-3.58201e-08
1.20213e-05
-2.74917e-08
1.20151e-05
-1.29453e-08
1.20132e-05
1.31859e-08
1.20136e-05
3.34603e-08
1.20144e-05
4.50636e-08
1.20161e-05
5.08445e-08
1.202e-05
5.88542e-08
6.5203e-08
1.20249e-05
1.26444e-05
-4.69724e-09
1.26442e-05
-4.93188e-09
1.2646e-05
-4.34237e-08
1.26399e-05
-6.97204e-08
1.26256e-05
-6.08153e-08
1.2621e-05
-3.00978e-08
1.26252e-05
-1.76318e-09
1.2629e-05
1.36133e-09
1.26271e-05
-1.29881e-08
1.26202e-05
-3.67343e-08
1.26131e-05
-3.90305e-08
1.26063e-05
-2.90676e-08
1.25985e-05
-1.97065e-08
1.25928e-05
-7.20744e-09
1.25909e-05
1.50987e-08
1.25913e-05
3.3074e-08
1.25923e-05
4.4097e-08
1.2594e-05
4.91257e-08
1.25973e-05
5.55226e-08
6.07095e-08
1.26018e-05
1.32484e-05
-6.14441e-09
1.32472e-05
-3.74091e-09
1.32462e-05
-4.24736e-08
1.32423e-05
-6.57751e-08
1.32312e-05
-4.96804e-08
1.32258e-05
-2.47173e-08
1.32283e-05
-4.33189e-09
1.32318e-05
-2.10048e-09
1.32301e-05
-1.12665e-08
1.32233e-05
-2.99198e-08
1.32163e-05
-3.20075e-08
1.32101e-05
-2.28959e-08
1.32033e-05
-1.29761e-08
1.31982e-05
-2.05278e-09
1.31963e-05
1.69798e-08
1.31967e-05
3.27114e-08
1.31978e-05
4.30073e-08
1.31995e-05
4.74309e-08
1.32024e-05
5.25741e-08
5.67252e-08
1.32064e-05
1.38812e-05
-7.1777e-09
1.38803e-05
-2.79597e-09
1.3877e-05
-3.91769e-08
1.38736e-05
-6.24284e-08
1.38654e-05
-4.14618e-08
1.38598e-05
-1.91011e-08
1.38606e-05
-5.13919e-09
1.38633e-05
-4.81142e-09
1.38619e-05
-9.91267e-09
1.38556e-05
-2.35577e-08
1.38486e-05
-2.50484e-08
1.38429e-05
-1.71484e-08
1.3837e-05
-7.11645e-09
1.38325e-05
2.5073e-09
1.38307e-05
1.87103e-08
1.38311e-05
3.23803e-08
1.38322e-05
4.18406e-08
1.38339e-05
4.57793e-08
1.38366e-05
4.98527e-08
5.32044e-08
1.38401e-05
1.45442e-05
-7.74598e-09
1.45436e-05
-2.15175e-09
1.45389e-05
-3.44924e-08
1.45352e-05
-5.87676e-08
1.45295e-05
-3.57191e-08
1.45242e-05
-1.384e-08
1.45234e-05
-4.30573e-09
1.4525e-05
-6.38314e-09
1.45239e-05
-8.87301e-09
1.45183e-05
-1.79189e-08
1.45115e-05
-1.82957e-08
1.45061e-05
-1.17052e-08
1.45009e-05
-1.95992e-09
1.4497e-05
6.48272e-09
1.44954e-05
2.02445e-08
1.44958e-05
3.20381e-08
1.4497e-05
4.06279e-08
1.44986e-05
4.41819e-08
1.45011e-05
4.73178e-08
5.00014e-08
1.45043e-05
1.5239e-05
-7.87126e-09
1.5239e-05
-2.17924e-09
1.52335e-05
-2.89377e-08
1.52288e-05
-5.40952e-08
1.52248e-05
-3.17349e-08
1.52204e-05
-9.43698e-09
1.52183e-05
-2.18136e-09
1.52185e-05
-6.61213e-09
1.52175e-05
-7.85795e-09
1.52127e-05
-1.31345e-08
1.52065e-05
-1.20468e-08
1.52012e-05
-6.41446e-09
1.51967e-05
2.55748e-09
1.51932e-05
9.95372e-09
1.51919e-05
2.15892e-08
1.51923e-05
3.16299e-08
1.51935e-05
3.9368e-08
1.51951e-05
4.26082e-08
1.51974e-05
4.49883e-08
4.7001e-08
1.52004e-05
1.59671e-05
-7.61944e-09
1.59676e-05
-2.71646e-09
1.59618e-05
-2.3159e-08
1.59559e-05
-4.82001e-08
1.59529e-05
-2.86993e-08
1.59496e-05
-6.14142e-09
1.59468e-05
6.676e-10
1.59456e-05
-5.4613e-09
1.59442e-05
-6.48932e-09
1.59403e-05
-9.18377e-09
1.59347e-05
-6.48849e-09
1.59298e-05
-1.4346e-09
1.59257e-05
6.64561e-09
1.59227e-05
1.29562e-08
1.59215e-05
2.27605e-08
1.59219e-05
3.11789e-08
1.59233e-05
3.80361e-08
1.59249e-05
4.10256e-08
1.5927e-05
4.28514e-08
4.41826e-08
1.59298e-05
1.67301e-05
-7.08015e-09
1.67305e-05
-3.18962e-09
1.67252e-05
-1.78007e-08
1.67183e-05
-4.13523e-08
1.67155e-05
-2.58361e-08
1.67133e-05
-3.98804e-09
1.67102e-05
3.73367e-09
1.67079e-05
-3.09932e-09
1.67059e-05
-4.53634e-09
1.67026e-05
-5.81054e-09
1.66978e-05
-1.69816e-09
1.66933e-05
3.00976e-09
1.66896e-05
1.03857e-08
1.66869e-05
1.55981e-08
1.6686e-05
2.37326e-08
1.66864e-05
3.07369e-08
1.66878e-05
3.66322e-08
1.66894e-05
3.93917e-08
1.66914e-05
4.08636e-08
4.15616e-08
1.66941e-05
1.75296e-05
-6.37098e-09
1.753e-05
-3.51503e-09
1.75252e-05
-1.29922e-08
1.75177e-05
-3.388e-08
1.75144e-05
-2.25087e-08
1.75131e-05
-2.71421e-09
1.75103e-05
6.56719e-09
1.7507e-05
1.41153e-10
1.75044e-05
-1.91449e-09
1.75013e-05
-2.67944e-09
1.74972e-05
2.34885e-09
1.74934e-05
6.86079e-09
1.74901e-05
1.36697e-08
1.74877e-05
1.79851e-08
1.74869e-05
2.45201e-08
1.74874e-05
3.02772e-08
1.74888e-05
3.5237e-08
1.74905e-05
3.76571e-08
1.74924e-05
3.89709e-08
3.91294e-08
1.74948e-05
1.83676e-05
-5.58691e-09
1.83674e-05
-3.3838e-09
1.83633e-05
-8.87903e-09
1.83557e-05
-2.62425e-08
1.83516e-05
-1.84621e-08
1.83507e-05
-1.77176e-09
1.83483e-05
8.92602e-09
1.83447e-05
3.73748e-09
1.83414e-05
1.40992e-09
1.83383e-05
4.68361e-10
1.83349e-05
5.74135e-09
1.83316e-05
1.01651e-08
1.83288e-05
1.64125e-08
1.83267e-05
2.00854e-08
1.8326e-05
2.5224e-08
1.83266e-05
2.97421e-08
1.83279e-05
3.39063e-08