/*--------------------------------*- C++ -*----------------------------------*\
| =========                 |                                                 |
| \\      /  F ield         | OpenFOAM: The Open Source CFD Toolbox           |
|  \\    /   O peration     | Version:  2506                                  |
|   \\  /    A nd           | Website:  www.openfoam.com                      |
|    \\/     M anipulation  |                                                 |
\*---------------------------------------------------------------------------*/
FoamFile
{
    version     2.0;
    format      ascii;
    arch        "LSB;label=32;scalar=64";
    class       volVectorField;
    location    "3.25";
    object      U;
}
// * * * * * * * * * * * * * * * * * * * * * * * * * * * * * * * * * * * * * //

dimensions      [0 1 -1 0 0 0 0];

internalField   nonuniform List<vector> 
9600
(
(0.863607 -0.000239773 0)
(1.132 0.00317681 0)
(0.86691 0.00144478 0)
(1.06457 -0.0118366 0)
(0.923353 -0.0052688 0)
(1.17539 0.000869264 0)
(0.895696 0.0100091 0)
(1.06085 0.0132352 0)
(0.909336 0.0026801 0)
(1.00879 -0.0132968 0)
(0.905508 -0.00749072 0)
(1.06283 -0.0287616 0)
(0.882608 -0.00558582 0)
(1.12066 -0.0209843 0)
(0.866775 -0.00358559 0)
(1.15357 -0.0044805 0)
(0.838849 0.00769918 0)
(1.15106 0.012719 0)
(0.826359 0.0116143 0)
(1.10848 0.015244 0)
(0.873508 -0.000296727 0)
(1.12061 0.00328134 0)
(0.88181 0.00188696 0)
(1.05093 -0.012152 0)
(0.930412 -0.00664074 0)
(1.16149 0.00124037 0)
(0.910797 0.0109429 0)
(1.04154 0.0132347 0)
(0.933691 0.00326738 0)
(0.994552 -0.0130106 0)
(0.929509 -0.00865714 0)
(1.0357 -0.0279532 0)
(0.908419 -0.00723371 0)
(1.08368 -0.0202519 0)
(0.901017 -0.00498846 0)
(1.10632 -0.00331815 0)
(0.895688 0.00790376 0)
(1.07653 0.0123387 0)
(0.92699 0.0142639 0)
(0.986648 0.0134248 0)
(0.89232 -0.000316758 0)
(1.09903 0.00337776 0)
(0.905836 0.00227898 0)
(1.0321 -0.0124811 0)
(0.944477 -0.00773606 0)
(1.13426 0.00163281 0)
(0.938404 0.012166 0)
(1.01579 0.0131631 0)
(0.95907 0.0036686 0)
(0.985145 -0.0129446 0)
(0.953327 -0.00924714 0)
(1.01343 -0.0276331 0)
(0.941632 -0.00821903 0)
(1.04749 -0.0200552 0)
(0.948105 -0.00544418 0)
(1.05485 -0.00331464 0)
(0.956095 0.00824701 0)
(1.01791 0.0120172 0)
(0.976364 0.0160844 0)
(0.963578 0.0138266 0)
(0.916533 -0.000297693 0)
(1.07205 0.00338452 0)
(0.93283 0.00265399 0)
(1.01383 -0.0127079 0)
(0.96075 -0.0086296 0)
(1.10059 0.00176986 0)
(0.967406 0.0132995 0)
(0.998441 0.0130743 0)
(0.978191 0.00386557 0)
(0.984231 -0.0128147 0)
(0.97017 -0.00961334 0)
(0.999703 -0.0274379 0)
(0.96583 -0.00881421 0)
(1.02344 -0.0202284 0)
(0.980209 -0.00550896 0)
(1.02565 -0.00352334 0)
(0.98857 0.00904443 0)
(1.00007 0.0120473 0)
(0.988984 0.0168348 0)
(0.974663 0.0152638 0)
(0.941441 -0.000248814 0)
(1.04574 0.00333935 0)
(0.957513 0.00300505 0)
(1.00085 -0.0128548 0)
(0.97387 -0.00939247 0)
(1.06831 0.00168499 0)
(0.989454 0.014243 0)
(0.993676 0.0130749 0)
(0.991647 0.00393896 0)
(0.989242 -0.0126484 0)
(0.980969 -0.00980984 0)
(0.994014 -0.0272889 0)
(0.978088 -0.00932404 0)
(1.01052 -0.0204415 0)
(0.993892 -0.00553539 0)
(1.01334 -0.00368745 0)
(0.999648 0.00966702 0)
(0.998979 0.0122056 0)
(0.992887 0.017303 0)
(0.983525 0.0165922 0)
(0.962899 -0.000181865 0)
(1.02498 0.00327773 0)
(0.976844 0.0032771 0)
(0.994772 -0.0129203 0)
(0.981529 -0.0099829 0)
(1.04206 0.0014944 0)
(1.00218 0.0149174 0)
(0.997272 0.0131485 0)
(1.00177 0.00394594 0)
(0.996089 -0.0124439 0)
(0.988633 -0.00984401 0)
(0.992996 -0.0271132 0)
(0.982636 -0.00973895 0)
(1.00342 -0.0206227 0)
(0.9967 -0.0056819 0)
(1.00695 -0.00372983 0)
(1.00099 0.00985382 0)
(0.998972 0.0125139 0)
(0.99487 0.0176294 0)
(0.988087 0.0175482 0)
(0.97864 -0.000113634 0)
(1.01165 0.00321095 0)
(0.990311 0.00345095 0)
(0.994163 -0.0128874 0)
(0.98465 -0.0103731 0)
(1.02264 0.00124894 0)
(1.0072 0.0152819 0)
(1.00335 0.0132125 0)
(1.00967 0.00392965 0)
(1.00233 -0.0121935 0)
(0.994728 -0.00976137 0)
(0.993954 -0.0268516 0)
(0.983998 -0.010039 0)
(0.998554 -0.0207765 0)
(0.994933 -0.00584765 0)
(1.00168 -0.00372781 0)
(0.998793 0.00980361 0)
(0.997438 0.0129423 0)
(0.995539 0.0176631 0)
(0.990895 0.0182883 0)
(0.988536 -5.85903e-05 0)
(1.00476 0.00314038 0)
(0.998932 0.00354282 0)
(0.996323 -0.0127609 0)
(0.985516 -0.0105788 0)
(1.00881 0.000967627 0)
(1.00737 0.0153656 0)
(1.00833 0.0132046 0)
(1.0154 0.00391806 0)
(1.00705 -0.0119093 0)
(0.999695 -0.00960187 0)
(0.995432 -0.0264784 0)
(0.984711 -0.0102422 0)
(0.994611 -0.0208447 0)
(0.991752 -0.00601323 0)
(0.99666 -0.003702 0)
(0.995663 0.00965596 0)
(0.995452 0.0133443 0)
(0.99572 0.0174429 0)
(0.993258 0.0189258 0)
(0.993915 -2.16634e-05 0)
(1.00192 0.00306339 0)
(1.00409 0.00357376 0)
(0.999018 -0.0125667 0)
(0.985981 -0.0106285 0)
(0.999163 0.000680043 0)
(1.00517 0.0152344 0)
(1.01122 0.0131012 0)
(1.01897 0.00391337 0)
(1.01009 -0.0116112 0)
(1.00358 -0.00939162 0)
(0.996861 -0.0260089 0)
(0.985646 -0.0103572 0)
(0.991438 -0.0207831 0)
(0.988521 -0.00620313 0)
(0.992097 -0.00362566 0)
(0.992655 0.00937469 0)
(0.993837 0.0136523 0)
(0.996082 0.0170662 0)
(0.995596 0.0194191 0)
(0.996523 5.64076e-07 0)
(1.00093 0.00297676 0)
(1.00691 0.0035638 0)
(1.00114 -0.0123307 0)
(0.98684 -0.0105532 0)
(0.992747 0.000414741 0)
(1.00235 0.0149532 0)
(1.01233 0.012909 0)
(1.02073 0.00389819 0)
(1.01169 -0.0113152 0)
(1.00635 -0.00915727 0)
(0.998094 -0.025465 0)
(0.986858 -0.0103945 0)
(0.989145 -0.0205773 0)
(0.985806 -0.00642042 0)
(0.988239 -0.00348845 0)
(0.990111 0.00891705 0)
(0.99272 0.0138713 0)
(0.996655 0.0165643 0)
(0.997768 0.0197003 0)
(0.997755 1.41918e-05 0)
(1.00051 0.00288098 0)
(1.00823 0.00353026 0)
(1.00248 -0.0120747 0)
(0.988108 -0.0103879 0)
(0.988897 0.000186733 0)
(0.999856 0.0145751 0)
(1.0123 0.0126466 0)
(1.02117 0.00386944 0)
(1.01222 -0.011028 0)
(1.00808 -0.0089225 0)
(0.999119 -0.0248625 0)
(0.988146 -0.0103819 0)
(0.987766 -0.0202279 0)
(0.983804 -0.0066442 0)
(0.98522 -0.003304 0)
(0.988036 0.00830037 0)
(0.991846 0.0140007 0)
(0.997072 0.0159631 0)
(0.999353 0.019753 0)
(0.998418 2.41676e-05 0)
(1.00016 0.00278024 0)
(1.00864 0.00348177 0)
(1.00325 -0.0118134 0)
(0.989507 -0.010166 0)
(0.986959 -1.0452e-06 0)
(0.997995 0.0141422 0)
(1.01163 0.0123346 0)
(1.02077 0.00382758 0)
(1.0121 -0.0107497 0)
(1.00892 -0.00870178 0)
(0.999955 -0.0242199 0)
(0.989296 -0.0103432 0)
(0.987189 -0.0197398 0)
(0.982527 -0.00686896 0)
(0.983041 -0.00306569 0)
(0.986337 0.00757192 0)
(0.990899 0.014035 0)
(0.996953 0.0153276 0)
(0.999981 0.0195909 0)
(0.998852 3.34178e-05 0)
(0.999805 0.00267885 0)
(1.00857 0.00341968 0)
(1.00371 -0.0115538 0)
(0.990786 -0.00990998 0)
(0.986269 -0.00015048 0)
(0.996705 0.0136844 0)
(1.01059 0.0119928 0)
(1.01989 0.003771 0)
(1.01165 -0.0104764 0)
(1.00911 -0.00850541 0)
(1.00062 -0.0235481 0)
(0.990192 -0.0102985 0)
(0.987181 -0.0191271 0)
(0.981887 -0.00710507 0)
(0.981596 -0.00276687 0)
(0.984947 0.00678862 0)
(0.989717 0.0139757 0)
(0.996162 0.0147373 0)
(0.999572 0.0192359 0)
(0.999166 4.3207e-05 0)
(0.999494 0.00257865 0)
(1.00829 0.00334655 0)
(1.00401 -0.0112976 0)
(0.991815 -0.00963444 0)
(0.986262 -0.000266141 0)
(0.995809 0.0132199 0)
(1.00938 0.0116356 0)
(1.01879 0.00369645 0)
(1.01107 -0.010202 0)
(1.00892 -0.00834149 0)
(1.00113 -0.0228476 0)
(0.990827 -0.0102656 0)
(0.987477 -0.0184151 0)
(0.981741 -0.00733801 0)
(0.980723 -0.0024112 0)
(0.983856 0.00601325 0)
(0.988345 0.0138215 0)
(0.994844 0.0142497 0)
(0.998373 0.0187176 0)
(0.999389 5.37849e-05 0)
(0.99926 0.00248009 0)
(1.00796 0.00326399 0)
(1.0042 -0.0110446 0)
(0.992576 -0.00934626 0)
(0.98656 -0.000354676 0)
(0.995182 0.0127597 0)
(1.00815 0.0112709 0)
(1.01765 0.00360012 0)
(1.01048 -0.00992308 0)
(1.00853 -0.00820799 0)
(1.00149 -0.0221218 0)
(0.991267 -0.0102486 0)
(0.98787 -0.0176329 0)
(0.981943 -0.00754396 0)
(0.980257 -0.00201549 0)
(0.983072 0.00529955 0)
(0.986963 0.0135705 0)
(0.993296 0.0138901 0)
(0.996799 0.0180715 0)
(0.999545 6.50236e-05 0)
(0.999109 0.00238267 0)
(1.00765 0.00317344 0)
(1.0043 -0.0107923 0)
(0.993115 -0.00905036 0)
(0.986964 -0.000421442 0)
(0.994775 0.012306 0)
(1.00706 0.010905 0)
(1.0166 0.0034783 0)
(1.00994 -0.00963499 0)
(1.00808 -0.00810241 0)
(1.00172 -0.021369 0)
(0.991584 -0.0102533 0)
(0.988239 -0.016793 0)
(0.982366 -0.00774211 0)
(0.980076 -0.00157722 0)
(0.982598 0.00468988 0)
(0.985766 0.0132312 0)
(0.99181 0.0136533 0)
(0.995245 0.0173416 0)
(0.999651 7.66288e-05 0)
(0.999027 0.00228553 0)
(1.00737 0.00307686 0)
(1.00431 -0.0105379 0)
(0.993499 -0.00875063 0)
(0.987396 -0.000471076 0)
(0.994568 0.0118562 0)
(1.00619 0.0105405 0)
(1.0157 0.00332972 0)
(1.00947 -0.00933207 0)
(1.00763 -0.00802487 0)
(1.00185 -0.0205896 0)
(0.991835 -0.010275 0)
(0.98854 -0.0159127 0)
(0.982923 -0.00792995 0)
(0.980111 -0.00112406 0)
(0.982413 0.00420428 0)
(0.984898 0.0128121 0)
(0.990585 0.0135166 0)
(0.993977 0.0165888 0)
(0.999722 8.83084e-05 0)
(0.999001 0.00218801 0)
(1.00712 0.00297593 0)
(1.00425 -0.0102794 0)
(0.993785 -0.00844943 0)
(0.987835 -0.000507727 0)
(0.994528 0.0114057 0)
(1.00556 0.0101789 0)
(1.01494 0.00315678 0)
(1.00907 -0.00901466 0)
(1.00722 -0.00796626 0)
(1.00191 -0.0197913 0)
(0.992051 -0.0103039 0)
(0.988773 -0.015014 0)
(0.98355 -0.00807043 0)
(0.980326 -0.000714492 0)
(0.982485 0.00384819 0)
(0.984424 0.0123197 0)
(0.989719 0.0134389 0)
(0.993112 0.0158543 0)
(0.999761 9.96511e-05 0)
(0.999022 0.00209018 0)
(1.00687 0.00287138 0)
(1.00416 -0.0100151 0)
(0.994014 -0.00814919 0)
(0.988283 -0.000532906 0)
(0.994603 0.0109482 0)
(1.00512 0.00982333 0)
(1.01428 0.00296121 0)
(1.00872 -0.00868084 0)
(1.00682 -0.00792193 0)
(1.00192 -0.018976 0)
(0.992249 -0.0103346 0)
(0.988957 -0.0141144 0)
(0.984205 -0.00816293 0)
(0.980693 -0.000342124 0)
(0.982765 0.00362006 0)
(0.984333 0.0117645 0)
(0.989217 0.0133721 0)
(0.992646 0.0151602 0)
(0.999767 0.000110383 0)
(0.999084 0.00199202 0)
(1.00661 0.0027641 0)
(1.00405 -0.00974411 0)
(0.994205 -0.00785251 0)
(0.988749 -0.000547702 0)
(0.994742 0.0104808 0)
(1.00482 0.00947409 0)
(1.01368 0.00274604 0)
(1.00841 -0.00833006 0)
(1.00644 -0.00788514 0)
(1.00191 -0.0181529 0)
(0.992436 -0.0103546 0)
(0.989116 -0.0132277 0)
(0.984862 -0.00820342 0)
(0.981188 -3.32072e-05 0)
(0.98319 0.00350574 0)
(0.984559 0.011166 0)
(0.989018 0.0132826 0)
(0.992502 0.0145307 0)
(0.999739 0.000120327 0)
(0.999184 0.00189383 0)
(1.00633 0.00265415 0)
(1.00395 -0.0094657 0)
(0.994367 -0.00756161 0)
(0.989234 -0.00055184 0)
(0.994906 0.0100009 0)
(1.00461 0.00913353 0)
(1.01311 0.0025134 0)
(1.00813 -0.00796722 0)
(1.00607 -0.00784417 0)
(1.00189 -0.0173349 0)
(0.992618 -0.0103503 0)
(0.989269 -0.0123639 0)
(0.985503 -0.00817756 0)
(0.981779 0.000197921 0)
(0.9837 0.00348018 0)
(0.985008 0.01054 0)
(0.989037 0.0131507 0)
(0.992569 0.0139857 0)
(0.999678 0.000129233 0)
(0.999315 0.00179694 0)
(1.00603 0.00253986 0)
(1.00386 -0.00917825 0)
(0.994506 -0.00727854 0)
(0.989739 -0.000544645 0)
(0.995073 0.00950664 0)
(1.00445 0.00880437 0)
(1.01254 0.00226581 0)
(1.00786 -0.00759425 0)
(1.00568 -0.00779461 0)
(1.00187 -0.016528 0)
(0.992799 -0.0103097 0)
(0.989429 -0.0115416 0)
(0.986125 -0.00809098 0)
(0.982439 0.000368035 0)
(0.984246 0.00351303 0)
(0.985594 0.0098981 0)
(0.989194 0.0129607 0)
(0.992745 0.0135308 0)
(0.999592 0.000136373 0)
(0.999468 0.00170302 0)
(1.00572 0.00242079 0)
(1.00379 -0.00887971 0)
(0.994628 -0.00700592 0)
(0.990254 -0.000526087 0)
(0.99524 0.00899919 0)
(1.00431 0.00848352 0)
(1.01197 0.00201181 0)
(1.00759 -0.00721884 0)
(1.00529 -0.00772692 0)
(1.00185 -0.0157403 0)
(0.992983 -0.0102346 0)
(0.989598 -0.0107564 0)
(0.98673 -0.00794691 0)
(0.983147 0.00047481 0)
(0.984795 0.00358839 0)
(0.986249 0.00926343 0)
(0.989433 0.0127033 0)
(0.992955 0.0131521 0)
(0.999496 0.000142412 0)
(0.999629 0.00161109 0)
(1.00539 0.00229589 0)
(1.00372 -0.00857089 0)
(0.994744 -0.00674333 0)
(0.990768 -0.000496063 0)
(0.995408 0.00847908 0)
(1.00417 0.00816654 0)
(1.0114 0.00175456 0)
(1.00733 -0.00685274 0)
(1.00491 -0.00762855 0)
(1.00182 -0.0149844 0)
(0.993178 -0.0101203 0)
(0.989774 -0.0100046 0)
(0.987322 -0.00774162 0)
(0.983888 0.000523364 0)
(0.985336 0.00370039 0)
(0.986931 0.00865603 0)
(0.989727 0.0123698 0)
(0.993157 0.0128298 0)
(0.999402 0.000147171 0)
(0.999784 0.00152248 0)
(1.00507 0.00216352 0)
(1.00364 -0.0082513 0)
(0.994867 -0.00649262 0)
(0.991269 -0.000455254 0)
(0.995584 0.0079508 0)
(1.00403 0.00785327 0)
(1.01084 0.00149879 0)
(1.00705 -0.00650055 0)
(1.00453 -0.0074971 0)
(1.00179 -0.0142586 0)
(0.993391 -0.0099642 0)
(0.989955 -0.00928995 0)
(0.987902 -0.00748858 0)
(0.984653 0.00051936 0)
(0.985865 0.00383804 0)
(0.987611 0.00808496 0)
(0.990066 0.0119511 0)
(0.993337 0.0125513 0)
(0.999324 0.000149169 0)
(0.999922 0.00144175 0)
(1.00477 0.00202165 0)
(1.00355 -0.00791822 0)
(0.995007 -0.00625825 0)
(0.991748 -0.000402869 0)
(0.995772 0.00741867 0)
(1.00388 0.00753941 0)
(1.01028 0.00125321 0)
(1.00677 -0.00617057 0)
(1.00416 -0.00733038 0)
(1.00175 -0.0135558 0)
(0.993628 -0.00977811 0)
(0.990138 -0.00860426 0)
(0.988472 -0.007183 0)
(0.985437 0.000474518 0)
(0.986387 0.00398952 0)
(0.98827 0.00756693 0)
(0.990452 0.011447 0)
(0.993494 0.0123056 0)
(0.999268 0.000149498 0)
(1.00004 0.00136805 0)
(1.00449 0.00186949 0)
(1.00343 -0.00757408 0)
(0.995169 -0.00603441 0)
(0.992203 -0.000344509 0)
(0.995974 0.00688498 0)
(1.00372 0.00721831 0)
(1.00974 0.00102499 0)
(1.00648 -0.00586525 0)
(1.00381 -0.00712934 0)
(1.00169 -0.0128727 0)
(0.993891 -0.00956101 0)
(0.990326 -0.00795193 0)
(0.98903 -0.0068329 0)
(0.986234 0.000388967 0)
(0.986906 0.00413368 0)
(0.988895 0.00711972 0)
(0.990884 0.010858 0)
(0.993641 0.012069 0)
(0.999237 0.00014811 0)
(1.00013 0.0013003 0)
(1.00423 0.00170852 0)
(1.0033 -0.00722222 0)
(0.995353 -0.0058182 0)
(0.992634 -0.000284116 0)
(0.996188 0.00635615 0)
(1.00354 0.00688476 0)
(1.00922 0.000818822 0)
(1.00617 -0.00558556 0)
(1.00347 -0.00689929 0)
(1.00161 -0.0122099 0)
(0.994179 -0.00931841 0)
(0.990522 -0.00733121 0)
(0.98957 -0.00644609 0)
(0.987042 0.000272373 0)
(0.987428 0.00425484 0)
(0.989475 0.00676005 0)
(0.991358 0.0102012 0)
(0.993795 0.0117993 0)
(0.999228 0.000144123 0)
(1.00019 0.00124091 0)
(1.00398 0.00153863 0)
(1.00316 -0.0068623 0)
(0.995555 -0.00561413 0)
(0.993046 -0.000221887 0)
(0.996411 0.00584128 0)
(1.00335 0.00653089 0)
(1.0087 0.000636406 0)
(1.00587 -0.0053338 0)
(1.00314 -0.00664314 0)
(1.00152 -0.0115637 0)
(0.994487 -0.00906418 0)
(0.990731 -0.00673239 0)
(0.990088 -0.00601445 0)
(0.987858 0.000139797 0)
(0.987961 0.00433743 0)
(0.990003 0.00649085 0)
(0.991861 0.00951463 0)
(0.993981 0.0114451 0)
(0.999236 0.000138174 0)
(1.00024 0.0011899 0)
(1.00376 0.00136244 0)
(1.003 -0.00649735 0)
(0.995769 -0.00541591 0)
(0.993445 -0.000162153 0)
(0.996639 0.00534753 0)
(1.00316 0.00615977 0)
(1.0082 0.000480326 0)
(1.00555 -0.00510557 0)
(1.00283 -0.00636401 0)
(1.00141 -0.0109191 0)
(0.994811 -0.00879542 0)
(0.990961 -0.00616305 0)
(0.99058 -0.00554713 0)
(0.988677 -3.35531e-06 0)
(0.98851 0.00436646 0)
(0.990478 0.0063006 0)
(0.992372 0.0088456 0)
(0.994218 0.0109683 0)
(0.999255 0.00013038 0)
(1.00028 0.00114499 0)
(1.00354 0.00118545 0)
(1.00283 -0.00613296 0)
(0.995988 -0.00522067 0)
(0.993832 -0.00011215 0)
(0.996869 0.0048796 0)
(1.00296 0.0057757 0)
(1.0077 0.000343609 0)
(1.00524 -0.00489617 0)
(1.00252 -0.00606872 0)
(1.00129 -0.0102743 0)
(0.995142 -0.00850818 0)
(0.991213 -0.00562862 0)
(0.991043 -0.0050474 0)
(0.989492 -0.000141161 0)
(0.989083 0.00433601 0)
(0.990905 0.00617462 0)
(0.992867 0.00825136 0)
(0.994516 0.0103823 0)
(0.999282 0.00012073 0)
(1.0003 0.00110545 0)
(1.00334 0.00100613 0)
(1.00267 -0.00577521 0)
(0.996209 -0.00501954 0)
(0.994211 -8.44936e-05 0)
(0.997097 0.00443986 0)
(1.00277 0.00537552 0)
(1.00721 0.000219788 0)
(1.00494 -0.00470388 0)
(1.00223 -0.00576678 0)
(1.00116 -0.00963444 0)
(0.995477 -0.00821006 0)
(0.991491 -0.0051352 0)
(0.991474 -0.00452011 0)
(0.990294 -0.000254966 0)
(0.989685 0.00424034 0)
(0.991298 0.00608159 0)
(0.993325 0.00775786 0)
(0.994866 0.00973422 0)
(0.999312 0.000110372 0)
(1.00032 0.00107059 0)
(1.00313 0.000828084 0)
(1.0025 -0.00543008 0)
(0.996429 -0.00480834 0)
(0.99458 -7.87601e-05 0)
(0.997321 0.00403046 0)
(1.00258 0.00496736 0)
(1.00672 0.000107722 0)
(1.00464 -0.00452932 0)
(1.00195 -0.005465 0)
(1.00102 -0.008991 0)
(0.995813 -0.0078955 0)
(0.991797 -0.00468416 0)
(0.991877 -0.00398313 0)
(0.991072 -0.0003404 0)
(0.990313 0.00408706 0)
(0.99167 0.00599 0)
(0.993734 0.00735443 0)
(0.995245 0.00907886 0)
(0.999343 9.85912e-05 0)
(1.00033 0.00103908 0)
(1.00293 0.000658497 0)
(1.00234 -0.00510482 0)
(0.996645 -0.00458516 0)
(0.99494 -9.10248e-05 0)
(0.997538 0.00364308 0)
(1.00239 0.00456635 0)
(1.00624 1.19968e-05 0)
(1.00435 -0.00436082 0)
(1.00169 -0.0051653 0)
(1.00087 -0.00833992 0)
(0.996146 -0.00755815 0)
(0.992131 -0.00427193 0)
(0.992252 -0.00344219 0)
(0.991819 -0.000395208 0)
(0.990968 0.0038896 0)
(0.992035 0.00588761 0)
(0.994091 0.00702475 0)
(0.995627 0.00847415 0)
(0.999375 8.78159e-05 0)
(1.00033 0.00100388 0)
(1.00273 0.000509469 0)
(1.00217 -0.00480961 0)
(0.996857 -0.00435114 0)
(0.99529 -0.000118727 0)
(0.997749 0.00326705 0)
(1.0022 0.00416769 0)
(1.00577 -7.13083e-05 0)
(1.00406 -0.00420428 0)
(1.00144 -0.00487054 0)
(1.00071 -0.00768844 0)
(0.996473 -0.00719911 0)
(0.992494 -0.00390286 0)
(0.992601 -0.00290282 0)
(0.992524 -0.000405562 0)
(0.991644 0.00365575 0)
(0.992404 0.00576893 0)
(0.994403 0.0067435 0)
(0.995991 0.00794067 0)
(0.999407 7.76548e-05 0)
(1.00034 0.000965903 0)
(1.00253 0.000386089 0)
(1.00201 -0.00454765 0)
(0.997064 -0.00411337 0)
(0.995628 -0.000159331 0)
(0.997952 0.0028923 0)
(1.00202 0.00376953 0)
(1.0053 -0.000137173 0)
(1.00378 -0.00405092 0)
(1.00122 -0.00458492 0)
(1.00055 -0.00704006 0)
(0.996788 -0.00681183 0)
(0.992887 -0.00357571 0)
(0.992931 -0.00238293 0)
(0.993179 -0.000365846 0)
(0.992335 0.00339284 0)
(0.992784 0.00562991 0)
(0.994675 0.00649547 0)
(0.996325 0.007468 0)
(0.999438 6.87224e-05 0)
(1.00033 0.000919479 0)
(1.00233 0.000297898 0)
(1.00186 -0.00430972 0)
(0.997267 -0.00388366 0)
(0.995953 -0.000197692 0)
(0.998148 0.00252948 0)
(1.00185 0.00337908 0)
(1.00485 -0.000184538 0)
(1.00351 -0.0038852 0)
(1.00101 -0.00431339 0)
(1.00039 -0.00640212 0)
(0.997084 -0.00639069 0)
(0.993307 -0.0032865 0)
(0.993248 -0.00189773 0)
(0.993779 -0.000273331 0)
(0.993033 0.00311114 0)
(0.993184 0.00546241 0)
(0.994916 0.00628028 0)
(0.996621 0.00704387 0)
(0.999468 6.39292e-05 0)
(1.00033 0.000861783 0)
(1.00213 0.000241654 0)
(1.00171 -0.00408746 0)
(0.997466 -0.00367514 0)
(0.996266 -0.000223325 0)
(0.998332 0.00218179 0)
(1.00169 0.00299119 0)
(1.0044 -0.000216153 0)
(1.00324 -0.003709 0)
(1.00083 -0.00405678 0)
(1.00022 -0.00578483 0)
(0.997358 -0.00594325 0)
(0.993746 -0.00303423 0)
(0.993562 -0.00145682 0)
(0.994319 -0.000142275 0)
(0.993727 0.00282375 0)
(0.993613 0.00525002 0)
(0.995133 0.00609427 0)
(0.996878 0.00666435 0)
(0.999498 5.91192e-05 0)
(1.00033 0.00080013 0)
(1.00193 0.000200203 0)
(1.00156 -0.0038663 0)
(0.997664 -0.00349377 0)
(0.996562 -0.000241911 0)
(0.998503 0.00186288 0)
(1.00154 0.00260865 0)
(1.00397 -0.000226588 0)
(1.00297 -0.00351166 0)
(1.00068 -0.00381299 0)
(1.00007 -0.00520546 0)
(0.997606 -0.00548054 0)
(0.9942 -0.00281248 0)
(0.993877 -0.0010773 0)
(0.994799 1.40597e-05 0)
(0.994407 0.00254548 0)
(0.994078 0.00498314 0)
(0.995338 0.00592413 0)
(0.997089 0.00633484 0)
(0.999526 5.73712e-05 0)
(1.00032 0.000725286 0)
(1.00174 0.000175153 0)
(1.00141 -0.00363119 0)
(0.997858 -0.00334118 0)
(0.996847 -0.000258434 0)
(0.998662 0.00158987 0)
(1.00141 0.00225254 0)
(1.00357 -0.000218104 0)
(1.00272 -0.00328671 0)
(1.00055 -0.0035889 0)
(0.999924 -0.00467773 0)
(0.997831 -0.00501495 0)
(0.994664 -0.00261195 0)
(0.994201 -0.000764703 0)
(0.995221 0.000197761 0)
(0.995054 0.00230203 0)
(0.994577 0.00467126 0)
(0.995547 0.00574828 0)
(0.997253 0.00606003 0)
(0.999553 5.62335e-05 0)
(1.00031 0.000635761 0)
(1.00155 0.000161824 0)
(1.00127 -0.00338832 0)
(0.998046 -0.00320366 0)
(0.997121 -0.000278327 0)
(0.998809 0.00134871 0)
(1.00128 0.00191239 0)
(1.00318 -0.000203431 0)
(1.00246 -0.00303152 0)
(1.00044 -0.00337217 0)
(0.999801 -0.00420103 0)
(0.998036 -0.00455878 0)
(0.995131 -0.00242895 0)
(0.994541 -0.00050763 0)
(0.995595 0.000388754 0)
(0.995657 0.00210637 0)
(0.995103 0.00433123 0)
(0.995773 0.00554405 0)
(0.997374 0.0058337 0)
(0.99958 6.21e-05 0)
(1.00031 0.000523221 0)
(1.00138 0.000161608 0)
(1.00112 -0.00312112 0)
(0.99823 -0.00308329 0)
(0.997387 -0.000325124 0)
(0.998944 0.001146 0)
(1.00117 0.00158326 0)
(1.00282 -0.000187071 0)
(1.00222 -0.00274386 0)
(1.00034 -0.00313562 0)
(0.999699 -0.00376452 0)
(0.998224 -0.00411222 0)
(0.995597 -0.00225042 0)
(0.994898 -0.000304799 0)
(0.99593 0.000572708 0)
(0.996207 0.00195543 0)
(0.995647 0.00397902 0)
(0.996033 0.00529463 0)
(0.99747 0.00563066 0)
(0.999605 6.26882e-05 0)
(1.00031 0.000419579 0)
(1.00122 0.000138143 0)
(1.00098 -0.00284076 0)
(0.998405 -0.00296216 0)
(0.99765 -0.00040152 0)
(0.999067 0.000935509 0)
(1.00107 0.00129444 0)
(1.0025 -0.000145558 0)
(1.00198 -0.00243086 0)
(1.00026 -0.00286908 0)
(0.999614 -0.00335056 0)
(0.998393 -0.00367003 0)
(0.996053 -0.00206465 0)
(0.995274 -0.000142251 0)
(0.996237 0.000755977 0)
(0.996701 0.00186026 0)
(0.996194 0.00364904 0)
(0.996334 0.00501984 0)
(0.997559 0.00544144 0)
(0.99963 6.14971e-05 0)
(1.00031 0.00031638 0)
(1.00107 8.8855e-05 0)
(1.00084 -0.00254806 0)
(0.998573 -0.00285785 0)
(0.997898 -0.000446304 0)
(0.999187 0.000808642 0)
(1.001 0.00104604 0)
(1.00221 -0.000161609 0)
(1.00175 -0.00215788 0)
(1.00017 -0.00261201 0)
(0.999534 -0.00297277 0)
(0.998537 -0.00324569 0)
(0.996489 -0.00187555 0)
(0.995664 -1.46735e-05 0)
(0.996525 0.000917305 0)
(0.997141 0.00180287 0)
(0.996738 0.00333873 0)
(0.996684 0.00471894 0)
(0.997669 0.00523693 0)
(0.999654 6.34423e-05 0)
(1.00031 0.000213934 0)
(1.00094 2.79897e-05 0)
(1.0007 -0.0022745 0)
(0.998725 -0.00268495 0)
(0.998159 -0.000468976 0)
(0.999306 0.000736435 0)
(1.00093 0.000824795 0)
(1.00196 -0.00022808 0)
(1.00154 -0.00194568 0)
(1.0001 -0.00237661 0)
(0.999476 -0.00263055 0)
(0.998673 -0.00284674 0)
(0.996909 -0.00168881 0)
(0.996069 6.8822e-05 0)
(0.996804 0.00103922 0)
(0.997527 0.00177497 0)
(0.997262 0.00305239 0)
(0.997072 0.00439664 0)
(0.99781 0.0050045 0)
(0.999677 5.63104e-05 0)
(1.00031 0.000134135 0)
(1.00082 -6.03847e-05 0)
(1.00058 -0.00199413 0)
(0.998871 -0.00243626 0)
(0.99841 -0.000532714 0)
(0.999416 0.000613469 0)
(1.00087 0.000639628 0)
(1.00174 -0.000295448 0)
(1.00136 -0.00177915 0)
(1.00005 -0.00215039 0)
(0.999444 -0.00229915 0)
(0.998805 -0.00245993 0)
(0.997311 -0.00148946 0)
(0.996487 0.000135397 0)
(0.997088 0.00113558 0)
(0.997866 0.00178374 0)
(0.997751 0.00281848 0)
(0.997486 0.00407986 0)
(0.997986 0.00475985 0)
(0.9997 4.80838e-05 0)
(1.00031 6.52601e-05 0)
(1.00073 -0.000150771 0)
(1.00047 -0.00171053 0)
(0.998998 -0.0022008 0)
(0.998649 -0.000594048 0)
(0.999528 0.000506157 0)
(1.0008 0.000498555 0)
(1.00154 -0.000357833 0)
(1.00121 -0.00162661 0)
(1.00003 -0.00192463 0)
(0.999435 -0.00198071 0)
(0.998931 -0.00208712 0)
(0.997692 -0.00128484 0)
(0.996909 0.000188844 0)
(0.99738 0.00119783 0)
(0.998166 0.00180226 0)
(0.998197 0.00262949 0)
(0.997913 0.00376925 0)
(0.998203 0.0044948 0)
(0.999722 3.50213e-05 0)
(1.00031 1.74036e-05 0)
(1.00066 -0.000241699 0)
(1.00038 -0.00148538 0)
(0.999112 -0.00194934 0)
(0.998877 -0.000624669 0)
(0.999643 0.000393438 0)
(1.00074 0.000384859 0)
(1.00136 -0.000373053 0)
(1.00108 -0.00146484 0)
(1.00002 -0.00170816 0)
(0.999445 -0.00169531 0)
(0.999049 -0.00174249 0)
(0.998044 -0.00108119 0)
(0.997329 0.00023319 0)
(0.997685 0.00122755 0)
(0.998442 0.00181837 0)
(0.998599 0.00248258 0)
(0.998342 0.00348057 0)
(0.99846 0.00421799 0)
(0.999744 1.92716e-05 0)
(1.0003 -1.90514e-05 0)
(1.0006 -0.000334755 0)
(1.00031 -0.00129837 0)
(0.999213 -0.00168127 0)
(0.999087 -0.000631823 0)
(0.999758 0.000277483 0)
(1.0007 0.000288821 0)
(1.00121 -0.000361665 0)
(1.00097 -0.00131594 0)
(1.00003 -0.00152046 0)
(0.999477 -0.00144066 0)
(0.999168 -0.00142394 0)
(0.998371 -0.000869761 0)
(0.997741 0.000285909 0)
(0.998002 0.00123379 0)
(0.998704 0.0018241 0)
(0.998957 0.00236845 0)
(0.998757 0.00322131 0)
(0.998748 0.00393812 0)
(0.999765 5.6612e-08 0)
(1.00029 -4.01733e-05 0)
(1.00055 -0.000414658 0)
(1.00027 -0.00115453 0)
(0.999307 -0.00141647 0)
(0.999277 -0.000611404 0)
(0.999874 0.000173089 0)
(1.00067 0.000210239 0)
(1.00108 -0.000335008 0)
(1.00087 -0.00116855 0)
(1.00005 -0.00134393 0)
(0.999532 -0.0012106 0)
(0.999287 -0.00113375 0)
(0.998673 -0.000668109 0)
(0.998135 0.000343381 0)
(0.998326 0.00122419 0)
(0.99896 0.00181517 0)
(0.99928 0.00228086 0)
(0.999153 0.00299744 0)
(0.999061 0.00366922 0)
(0.999785 -1.97413e-05 0)
(1.00028 -5.10542e-05 0)
(1.00051 -0.000482695 0)
(1.00024 -0.00104004 0)
(0.999396 -0.00116315 0)
(0.999444 -0.000561337 0)
(0.999988 7.62727e-05 0)
(1.00066 0.000131523 0)
(1.00096 -0.000302721 0)
(1.00079 -0.00101608 0)
(1.00009 -0.00117255 0)
(0.999608 -0.00100784 0)
(0.999411 -0.000872368 0)
(0.998953 -0.000475776 0)
(0.998512 0.000408393 0)
(0.998654 0.00121446 0)
(0.999218 0.00179205 0)
(0.999574 0.00220833 0)
(0.99952 0.0028049 0)
(0.999384 0.00341086 0)
(0.999804 -3.8451e-05 0)
(1.00026 -5.46805e-05 0)
(1.00048 -0.000525785 0)
(1.00024 -0.000948886 0)
(0.999485 -0.000941125 0)
(0.999588 -0.000495537 0)
(1.00009 -2.62035e-06 0)
(1.00066 5.77635e-05 0)
(1.00088 -0.000265517 0)
(1.00073 -0.000855964 0)
(1.00014 -0.00100181 0)
(0.999702 -0.000826881 0)
(0.999542 -0.000643188 0)
(0.999214 -0.000295018 0)
(0.998867 0.000473179 0)
(0.998977 0.00120214 0)
(0.999474 0.00175407 0)
(0.999845 0.00213638 0)
(0.999857 0.00264169 0)
(0.99971 0.00316881 0)
(0.999821 -5.52967e-05 0)
(1.00024 -4.57535e-05 0)
(1.00045 -0.000527458 0)
(1.00026 -0.000885398 0)
(0.999573 -0.000763715 0)
(0.999711 -0.000417585 0)
(1.00019 -5.86658e-05 0)
(1.00068 -1.25194e-05 0)
(1.00082 -0.000233824 0)
(1.00068 -0.00070375 0)
(1.00019 -0.000831427 0)
(0.999807 -0.000663132 0)
(0.999679 -0.000447549 0)
(0.999459 -0.000130202 0)
(0.999201 0.000538293 0)
(0.999293 0.00119033 0)
(0.999729 0.00171399 0)
(1.0001 0.0020651 0)
(1.00016 0.00250498 0)
(1.00003 0.0029541 0)
(0.999838 -6.84531e-05 0)
(1.00022 -3.30725e-05 0)
(1.00041 -0.000491927 0)
(1.00029 -0.000840888 0)
(0.999666 -0.000633575 0)
(0.999817 -0.000330519 0)
(1.00027 -8.58736e-05 0)
(1.0007 -7.3374e-05 0)
(1.00078 -0.000210188 0)
(1.00065 -0.000563133 0)
(1.00024 -0.000661619 0)
(0.999918 -0.00050899 0)
(0.999821 -0.000273956 0)
(0.99969 1.26953e-05 0)
(0.999512 0.000599581 0)
(0.999597 0.00117898 0)
(0.99998 0.00167141 0)
(1.00034 0.0019941 0)
(1.00045 0.00237822 0)
(1.00032 0.00276779 0)
(0.999852 -7.67577e-05 0)
(1.0002 -2.46293e-05 0)
(1.00038 -0.000436322 0)
(1.00031 -0.000795328 0)
(0.999764 -0.000540912 0)
(0.999911 -0.000247109 0)
(1.00033 -8.25668e-05 0)
(1.00073 -0.000112431 0)
(1.00077 -0.000191693 0)
(1.00064 -0.000434989 0)
(1.0003 -0.000499242 0)
(1.00003 -0.000365006 0)
(0.999963 -0.000121515 0)
(0.999908 0.00013492 0)
(0.999803 0.000649043 0)
(0.999889 0.00116695 0)
(1.00022 0.00162501 0)
(1.00057 0.00192683 0)
(1.00071 0.00225846 0)
(1.00059 0.00260637 0)
(0.999864 -8.01965e-05 0)
(1.00019 -2.15261e-05 0)
(1.00034 -0.000370084 0)
(1.00034 -0.000740122 0)
(0.999865 -0.000475655 0)
(0.999998 -0.00017183 0)
(1.00038 -5.66517e-05 0)
(1.00075 -0.000128381 0)
(1.00077 -0.0001737 0)
(1.00064 -0.000328497 0)
(1.00036 -0.00034659 0)
(1.00014 -0.000227359 0)
(1.0001 1.2464e-05 0)
(1.00011 0.000248526 0)
(1.00007 0.000690288 0)
(1.00017 0.00115126 0)
(1.00046 0.00157538 0)
(1.00079 0.00185905 0)
(1.00095 0.00214531 0)
(1.00084 0.00245296 0)
(0.999875 -7.88986e-05 0)
(1.00018 -2.6009e-05 0)
(1.0003 -0.000302114 0)
(1.00037 -0.000669275 0)
(0.999969 -0.000429438 0)
(1.00008 -0.000113838 0)
(1.00042 -1.246e-05 0)
(1.00077 -0.000116285 0)
(1.00079 -0.00014932 0)
(1.00066 -0.000241201 0)
(1.00042 -0.000208987 0)
(1.00025 -9.53888e-05 0)
(1.00024 0.000132503 0)
(1.0003 0.000349439 0)
(1.00032 0.000731136 0)
(1.00043 0.00113161 0)
(1.00069 0.00152427 0)
(1.00099 0.00179141 0)
(1.00117 0.00204209 0)
(1.00108 0.00230499 0)
(0.999883 -7.44535e-05 0)
(1.00017 -3.32959e-05 0)
(1.00027 -0.000236397 0)
(1.00039 -0.000581777 0)
(1.00007 -0.000389089 0)
(1.00017 -7.43509e-05 0)
(1.00045 4.01975e-05 0)
(1.00078 -7.85829e-05 0)
(1.00081 -0.000114694 0)
(1.0007 -0.000162159 0)
(1.00049 -8.91677e-05 0)
(1.00036 2.96241e-05 0)
(1.00037 0.000246107 0)
(1.00047 0.000435658 0)
(1.00055 0.000769481 0)
(1.00068 0.00111265 0)
(1.00092 0.00146789 0)
(1.00118 0.00172373 0)
(1.00136 0.00194754 0)
(1.0013 0.00216775 0)
(0.99989 -6.77006e-05 0)
(1.00016 -3.86343e-05 0)
(1.00024 -0.000177532 0)
(1.0004 -0.000483397 0)
(1.00016 -0.00034571 0)
(1.00026 -4.98331e-05 0)
(1.00048 9.05758e-05 0)
(1.00079 -2.72657e-05 0)
(1.00083 -6.82059e-05 0)
(1.00075 -9.13248e-05 0)
(1.00057 1.04317e-05 0)
(1.00047 0.000135628 0)
(1.0005 0.000349778 0)
(1.00063 0.000516287 0)
(1.00075 0.000799964 0)
(1.0009 0.00109859 0)
(1.00114 0.00140873 0)
(1.00137 0.00165155 0)
(1.00154 0.00185891 0)
(1.0015 0.00204121 0)
(0.999896 -5.98475e-05 0)
(1.00016 -3.96886e-05 0)
(1.00022 -0.000126508 0)
(1.00041 -0.000382056 0)
(1.00025 -0.000292861 0)
(1.00035 -3.5043e-05 0)
(1.00052 0.000133109 0)
(1.0008 3.61361e-05 0)
(1.00085 -6.65795e-06 0)
(1.0008 -2.51623e-05 0)
(1.00065 9.40997e-05 0)
(1.00058 0.000220294 0)
(1.00062 0.000431457 0)
(1.00077 0.00059111 0)
(1.00094 0.000825629 0)
(1.00111 0.0010826 0)
(1.00134 0.00135424 0)
(1.00155 0.0015716 0)
(1.00171 0.00177252 0)
(1.00168 0.00192305 0)
(0.999901 -5.18531e-05 0)
(1.00016 -3.50859e-05 0)
(1.00021 -8.27672e-05 0)
(1.00042 -0.000285557 0)
(1.00032 -0.00022759 0)
(1.00044 -2.06292e-05 0)
(1.00056 0.000163609 0)
(1.00081 0.000105594 0)
(1.00087 6.85664e-05 0)
(1.00086 4.41572e-05 0)
(1.00074 0.00016737 0)
(1.00069 0.000294735 0)
(1.00074 0.000494659 0)