/*--------------------------------*- C++ -*----------------------------------*\
| =========                 |                                                 |
| \\      /  F ield         | OpenFOAM: The Open Source CFD Toolbox           |
|  \\    /   O peration     | Version:  2506                                  |
|   \\  /    A nd           | Website:  www.openfoam.com                      |
|    \\/     M anipulation  |                                                 |
\*---------------------------------------------------------------------------*/
FoamFile
{
    version     2.0;
    format      ascii;
    arch        "LSB;label=32;scalar=64";
    class       volScalarField;
    location    "2.45";
    object      p;
}
// * * * * * * * * * * * * * * * * * * * * * * * * * * * * * * * * * * * * * //

dimensions      [0 2 -2 0 0 0 0];

internalField   nonuniform List<scalar> 
9600
(
1.01857e-10
-0.000592509
-0.00130097
-0.000226649
0.000702798
-0.00130112
-0.00062623
0.000888875
-0.000286406
0.000418273
0.00154943
0.00235115
0.00237567
0.0028335
0.00450854
0.0058969
0.00794582
0.00953889
0.0135343
0.0192463
-2.92566e-07
-0.000593395
-0.00129476
-0.000230352
0.000686925
-0.00130184
-0.000609324
0.000883202
-0.000277367
0.000411042
0.0015437
0.00235472
0.00236331
0.00283236
0.00450983
0.00588621
0.00796346
0.00949393
0.0137363
0.0188138
-1.00522e-06
-0.000594253
-0.00128715
-0.000237422
0.000667988
-0.00129906
-0.000595284
0.000872009
-0.000261738
0.000398333
0.00153976
0.00236048
0.00234186
0.00283823
0.0045065
0.00587568
0.00796686
0.00944398
0.0138295
0.0181996
-2.32238e-06
-0.000595541
-0.00127849
-0.000242963
0.000647957
-0.00129372
-0.000584574
0.000854749
-0.000241767
0.000384517
0.00153945
0.00236849
0.0023152
0.00284707
0.00450223
0.00586334
0.00796554
0.00939203
0.0138287
0.0176692
-4.42954e-06
-0.00059732
-0.00126697
-0.000247242
0.000625462
-0.00128445
-0.000575039
0.000830936
-0.000216292
0.000369905
0.00154031
0.00237665
0.00228626
0.0028568
0.00450076
0.00584734
0.00796622
0.00933147
0.0138025
0.0171888
-7.3354e-06
-0.000599241
-0.00125243
-0.000251658
0.000601925
-0.00127043
-0.000566137
0.00080226
-0.000185205
0.000353902
0.00154119
0.00238473
0.00225873
0.00286749
0.00450285
0.00582954
0.00796463
0.00926765
0.0137422
0.0167364
-1.08849e-05
-0.000601075
-0.0012355
-0.000256491
0.000579013
-0.0012522
-0.000557519
0.000771198
-0.0001495
0.00033711
0.00154197
0.00239375
0.0022343
0.00287868
0.00450856
0.00581031
0.0079581
0.00920328
0.0136425
0.0163038
-1.48709e-05
-0.000602733
-0.00121679
-0.000261636
0.000557455
-0.00123078
-0.000548796
0.000739586
-0.000109982
0.000320486
0.00154237
0.00240401
0.00221317
0.00288979
0.00451693
0.00579015
0.00794503
0.00913859
0.0135008
0.0158872
-1.91058e-05
-0.000604212
-0.00119688
-0.000267016
0.00053728
-0.00120723
-0.000539716
0.000708454
-6.72097e-05
0.000304556
0.00154203
0.00241521
0.00219507
0.00290016
0.00452662
0.0057699
0.00792358
0.00907266
0.0133182
0.0154835
-2.34613e-05
-0.000605581
-0.00117619
-0.000272564
0.000518154
-0.00118237
-0.000530158
0.000678174
-2.1902e-05
0.000289594
0.00154078
0.00242703
0.00217939
0.00290917
0.00453643
0.00575013
0.00789158
0.00900443
0.0130985
0.0150879
-2.78701e-05
-0.000606937
-0.0011549
-0.000278233
0.000499622
-0.00115686
-0.00052006
0.00064868
2.50463e-05
0.000275848
0.0015385
0.00243916
0.00216529
0.00291653
0.00454496
0.00573098
0.00784737
0.00893276
0.0128455
0.0146947
-3.23016e-05
-0.00060836
-0.0011331
-0.000284003
0.000481309
-0.00113111
-0.000509404
0.000619721
7.27421e-05
0.00026357
0.00153495
0.00245136
0.00215191
0.00292228
0.0045507
0.00571224
0.00779028
0.00885572
0.0125634
0.0142988
-3.67367e-05
-0.000609898
-0.00111083
-0.000289863
0.000462971
-0.00110541
-0.000498201
0.00059106
0.000120415
0.00025301
0.00152974
0.00246351
0.00213847
0.00292652
0.00455255
0.00569372
0.00772014
0.00876981
0.0122576
0.0138973
-4.11566e-05
-0.000611581
-0.00108811
-0.000295804
0.000444463
-0.00107989
-0.000486489
0.00056257
0.000167425
0.00024443
0.00152239
0.00247565
0.00212432
0.00292934
0.0045499
0.00567459
0.00763768
0.00867095
0.0119327
0.0134895
-4.55419e-05
-0.000613436
-0.00106497
-0.000301823
0.00042571
-0.00105456
-0.000474348
0.000534249
0.000213227
0.000238136
0.00151241
0.00248793
0.00210906
0.00293076
0.00454245
0.00565291
0.00754478
0.00855625
0.0115916
0.0130753
-4.98727e-05
-0.000615483
-0.00104144
-0.000307915
0.00040669
-0.00102941
-0.00046192
0.000506188
0.000257349
0.000234488
0.00149934
0.00250052
0.00209246
0.00293064
0.00453032
0.005626
0.00744357
0.00842454
0.011236
0.0126555
-5.41274e-05
-0.000617746
-0.00101755
-0.000314071
0.000387397
-0.00100437
-0.000449398
0.000478555
0.000299352
0.000233841
0.00148277
0.00251343
0.00207429
0.00292856
0.00451447
0.00559091
0.00733517
0.00827593
0.0108667
0.0122314
-5.82838e-05
-0.000620245
-0.000993366
-0.000320269
0.000367815
-0.000979332
-0.000437013
0.000451618
0.000338753
0.000236512
0.00146237
0.00252658
0.00205472
0.00292351
0.00449641
0.00554493
0.00721916
0.00811195
0.0104837
0.0118037
-6.23179e-05
-0.000622998
-0.000968934
-0.000326462
0.000347903
-0.000954156
-0.000425047
0.000425696
0.000375066
0.000242749
0.00143791
0.00253983
0.00203433
0.00291371
0.00447793
0.00548645
0.00709395
0.00793557
0.0100867
0.0113724
-6.62019e-05
-0.000626018
-0.000944335
-0.000332587
0.00032759
-0.000928672
-0.0004138
0.000401066
0.000407879
0.000252701
0.00140933
0.00255266
0.00201379
0.00289716
0.00446044
0.00541516
0.00695692
0.00775038
0.00967766
0.0109372
-6.99093e-05
-0.000629303
-0.000919667
-0.000338542
0.000306752
-0.000902676
-0.000403569
0.000377973
0.000436778
0.000266453
0.00137681
0.00256391
0.00199419
0.00287218
0.00444386
0.00533183
0.00680475
0.00755935
0.00925961
0.0105161
-7.34222e-05
-0.000632835
-0.000895042
-0.000344181
0.000285209
-0.000875968
-0.000394639
0.000356611
0.000461432
0.000283817
0.00134091
0.00257247
0.00197675
0.00283711
0.004427
0.0052387
0.00663382
0.00736399
0.00883586
0.0100591
-7.67335e-05
-0.000636566
-0.000870616
-0.000349336
0.000262777
-0.00084841
-0.000387206
0.000337061
0.000481621
0.000304368
0.00130258
0.00257718
0.00196215
0.00279068
0.00440843
0.00513892
0.00644116
0.00716387
0.00841164
0.00958709
-7.98514e-05
-0.000640405
-0.000846605
-0.000353817
0.000239316
-0.000819912
-0.000381415
0.000319375
0.000497279
0.000327437
0.00126285
0.0025764
0.00195094
0.00273255
0.0043857
0.00503568
0.00622593
0.00695669
0.00799295
0.00909828
-8.28036e-05
-0.000644232
-0.00082325
-0.000357421
0.000214709
-0.000790377
-0.000377456
0.000303415
0.000508736
0.000351916
0.00122266
0.00256901
0.00194353
0.00266297
0.00435537
0.00493157
0.00598896
0.00673887
0.00758556
0.00859364
-8.56354e-05
-0.000647874
-0.000800796
-0.000359948
0.000188783
-0.000759739
-0.00037534
0.000288671
0.000516663
0.000376645
0.00118286
0.00255426
0.00193952
0.0025826
0.00431672
0.0048285
0.00573207
0.00650596
0.00719535
0.00807726
-8.84416e-05
-0.000651089
-0.000779494
-0.000361233
0.000161387
-0.0007281
-0.000374779
0.000274552
0.000521714
0.000400654
0.00114414
0.00253138
0.001938
0.00249224
0.00425903
0.00472808
0.00545861
0.00625318
0.00682667
0.00755644
-9.13725e-05
-0.00065356
-0.000759594
-0.000361205
0.00013254
-0.00069579
-0.000375355
0.000260354
0.000524585
0.000423196
0.00110665
0.00249996
0.00193807
0.00239288
0.00418281
0.00463124
0.00517386
0.00597542
0.0064796
0.00704191
-9.45753e-05
-0.000654975
-0.000741286
-0.000359845
0.00010229
-0.000663219
-0.000376344
0.000245144
0.000525634
0.000443711
0.00106992
0.00245993
0.00193867
0.00228591
0.00408565
0.00453723
0.00488474
0.00566925
0.00615101
0.00654706
-9.82e-05
-0.000655012
-0.000724762
-0.0003572
7.08036e-05
-0.000630954
-0.000376835
0.000228179
0.000524919
0.000461786
0.00103357
0.00241135
0.00193846
0.00217259
0.00396534
0.00444381
0.00459904
0.00533491
0.00585534
0.00608536
-0.000102436
-0.000653313
-0.000710263
-0.000353495
3.86099e-05
-0.000599865
-0.000376084
0.000209144
0.00052248
0.000477325
0.000996964
0.00235385
0.00193602
0.00205454
0.00382068
0.0043474
0.00432373
0.004975
0.00553198
0.00566572
-0.000107486
-0.000649603
-0.000697768
-0.000349132
6.39064e-06
-0.000570768
-0.000373651
0.000188235
0.000517409
0.000490118
0.000959135
0.00228669
0.00193024
0.00193385
0.0036516
0.00424411
0.00406359
0.00459369
0.00519384
0.00528902
-0.00011354
-0.000643636
-0.000687098
-0.000344709
-2.51229e-05
-0.00054427
-0.000369466
0.000165988
0.000508748
0.000499614
0.000919405
0.00220958
0.00191987
0.00181229
0.00345895
0.00413527
0.00382079
0.00419633
0.0048327
0.00494539
-0.000120745
-0.000635231
-0.000678215
-0.000340969
-5.5151e-05
-0.000520833
-0.000363884
0.000142993
0.000496246
0.000505255
0.000876966
0.00212221
0.00190354
0.00169161
0.00324437
0.00400441
0.00359576
0.003803
0.00444587
0.00461676
-0.000129192
-0.00062448
-0.000670529
-0.000338617
-8.31723e-05
-0.000500366
-0.000357715
0.000119484
0.000479724
0.000506487
0.000830852
0.0020238
0.00187994
0.00157422
0.00301039
0.00385431
0.00338774
0.00341667
0.00403605
0.00428578
-0.000138941
-0.000611661
-0.000663142
-0.00033824
-0.000109366
-0.00048204
-0.000351668
9.52717e-05
0.000459228
0.000502742
0.000780161
0.00191369
0.00184735
0.0014628
0.00276076
0.00368169
0.00320756
0.00304235
0.00360899
0.00394132
-0.000149954
-0.000597258
-0.000656711
-0.000340106
-0.000134791
-0.000465149
-0.000345797
6.99608e-05
0.000434938
0.000493429
0.000724304
0.00179204
0.00180435
0.00135935
0.00249973
0.00348229
0.00302629
0.00268524
0.00317002
0.00357942
-0.000162039
-0.000582021
-0.000645437
-0.000343703
-0.000160804
-0.000449893
-0.000339973
4.29559e-05
0.000405991
0.000478084
0.000663835
0.00165995
0.00174929
0.00126464
0.00223222
0.00325357
0.00285138
0.00235068
0.00272371
0.00319912
-0.000174912
-0.00056669
-0.00063163
-0.000348027
-0.000188276
-0.00043726
-0.000334551
1.37879e-05
0.000370581
0.000456843
0.000600919
0.00151953
0.00167998
0.0011771
0.00196376
0.00299505
0.0026752
0.00204318
0.00227634
0.00279867
-0.000188227
-0.000551799
-0.000615863
-0.000351995
-0.000217547
-0.00042905
-0.0003303
-1.75168e-05
0.000328777
0.000430057
0.000537526
0.001373
0.00159449
0.00109364
0.00169941
0.0027086
0.00248871
0.00176469
0.00183746
0.00237647
-0.000201509
-0.00053777
-0.000599163
-0.000354501
-0.000248224
-0.000427281
-0.000328666
-5.06993e-05
0.000280571
0.000397651
0.000475296
0.00122244
0.0014916
0.00101058
0.0014432
0.00239904
0.00228421
0.00151295
0.00141799
0.0019343
-0.000214269
-0.000524883
-0.000582319
-0.00035477
-0.000278967
-0.000433505
-0.000332043
-8.59184e-05
0.000226308
0.000359321
0.000415684
0.00107057
0.00137087
0.000923846
0.00119762
0.0020725
0.00205684
0.0012814
0.00102767
0.00148029
-0.000226225
-0.000512973
-0.000566411
-0.000352566
-0.000307768
-0.000448666
-0.000342998
-0.000124236
0.000164428
0.000314773
0.000359261
0.000920659
0.00123339
0.000829531
0.000963758
0.00173497
0.00180439
0.0010612
0.000671669
0.00102767
-0.000237421
-0.0005014
-0.000552508
-0.00034795
-0.000333375
-0.000473106
-0.000365162
-0.000168309
9.24917e-05
0.000264191
0.000305923
0.000775314
0.00108159
0.000724189
0.000741604
0.00139286
0.00152692
0.000843782
0.000350006
0.000590024
-0.000247824
-0.000489877
-0.000541233
-0.000342815
-0.000339997
-0.000503942
-0.000400939
-0.000218857
2.04851e-05
0.000207502
0.000252727
0.000634835
0.000918576
0.000605453
0.000529488
0.00105219
0.00122659
0.000622374
5.93131e-05
0.00017768
-0.000257109
-0.000478454
-0.000533327
-0.000341323
-0.000360518
-0.000540112
-0.000444384
-0.000269428
-5.1161e-05
0.000141295
0.000192064
0.000496876
0.000747259
0.000472773
0.000324886
0.000718286
0.000907595
0.000390703
-0.000206799
-0.000203574
-0.000265429
-0.000467154
-0.000529108
-0.000346505
-0.000376764
-0.000574676
-0.000492298
-0.00032054
-0.000123306
6.4097e-05
0.000119496
0.000359078
0.000570387
0.000327188
0.00012572
0.000395012
0.000575219
0.000144339
-0.000455773
-0.000552256
-0.000273201
-0.000455885
-0.00052842
-0.000359148
-0.000391393
-0.000605649
-0.000544546
-0.000376364
-0.000196524
-2.22281e-05
3.47238e-05
0.000220197
0.0003902
0.000170058
-7.00145e-05
8.4581e-05
0.000235186
-0.000118339
-0.000694917
-0.000870104
-0.000280651
-0.000444696
-0.000530474
-0.000379561
-0.000407201
-0.000632857
-0.000600488
-0.000439256
-0.000272176
-0.000113675
-6.04092e-05
7.82216e-05
0.000207313
2.52934e-06
-0.0002647
-0.000211661
-0.000106129
-0.000396869
-0.000931108
-0.0011608
-0.00028813
-0.000433729
-0.00053413
-0.000408115
-0.000427053
-0.000656569
-0.000657739
-0.000509541
-0.000351335
-0.000208478
-0.000163855
-6.86463e-05
2.05552e-05
-0.000174121
-0.000460214
-0.000493901
-0.000442483
-0.000688572
-0.00117001
-0.00142938
-0.00029589
-0.000423277
-0.000538588
-0.000444655
-0.000453385
-0.000677412
-0.00071369
-0.000586557
-0.000436355
-0.000306961
-0.000273558
-0.000219792
-0.000170921
-0.000359598
-0.000657603
-0.000763544
-0.00076899
-0.000988358
-0.00141559
-0.00168216
-0.000304124
-0.000413932
-0.000543271
-0.000487969
-0.00048819
-0.000697072
-0.00076673
-0.000668773
-0.000529212
-0.000410243
-0.000387985
-0.000373336
-0.000366031
-0.000553965
-0.000857886
-0.00102269
-0.00108345
-0.00129011
-0.00166896
-0.0019262
-0.000313064
-0.000406811
-0.000547732
-0.000535545
-0.000532585
-0.000718699
-0.000816129
-0.00075395
-0.000630192
-0.000520079
-0.000507393
-0.000528314
-0.000562353
-0.000755427
-0.0010626
-0.00127378
-0.00138566
-0.00158862
-0.00192721
-0.0021671
-0.000322968
-0.000403377
-0.000552079
-0.000584297
-0.00058638
-0.000746333
-0.000862071
-0.000840316
-0.000739088
-0.000638459
-0.000632316
-0.00068404
-0.000758008
-0.00096095
-0.00127191
-0.00151897
-0.00167624
-0.00188165
-0.00218642
-0.00240722
-0.000334057
-0.000404356
-0.000556903
-0.00063192
-0.000648313
-0.000769991
-0.000906004
-0.000924741
-0.000854362
-0.00076652
-0.000763696
-0.00083975
-0.000952109
-0.00116868
-0.00148399
-0.00175953
-0.001956
-0.00216899
-0.00244461
-0.00264539
-0.000346565
-0.000410215
-0.000563438
-0.000676948
-0.000716972
-0.000818202
-0.000949864
-0.00100627
-0.000972413
-0.000903197
-0.000903938
-0.000996412
-0.00114286
-0.00137703
-0.00169741
-0.00199572
-0.00222536
-0.00244958
-0.00270134
-0.0028795
-0.000360719
-0.000421183
-0.00057336
-0.000718893
-0.000789533
-0.000878254
-0.00100114
-0.00108524
-0.00108956
-0.00104611
-0.00105404
-0.00115684
-0.00132984
-0.00158288
-0.00191064
-0.00222742
-0.00248482
-0.00272187
-0.00295646
-0.00310975
-0.000376677
-0.00043687
-0.000588109
-0.000758159
-0.000863056
-0.000949783
-0.00106077
-0.00116256
-0.00120416
-0.00119251
-0.00121216
-0.00132305
-0.0015152
-0.00178438
-0.00212097
-0.00245412
-0.00273464
-0.00298449
-0.00320857
-0.00333779
-0.000394722
-0.000457165
-0.000608592
-0.000796388
-0.000935458
-0.00103053
-0.00113118
-0.0012413
-0.00131561
-0.00133934
-0.00137613
-0.00149438
-0.00170099
-0.00198293
-0.00232651
-0.00267434
-0.00297462
-0.00323624
-0.00345527
-0.00356443
-0.000415251
-0.000481537
-0.000635432
-0.000835781
-0.00100578
-0.00111724
-0.00121279
-0.00132529
-0.00142434
-0.00148346
-0.00154367
-0.00166987
-0.00188653
-0.00217951
-0.00252758
-0.0028865
-0.0032044
-0.00347637
-0.00369398
-0.00378876
-0.000438739
-0.000509713
-0.000668749
-0.000878387
-0.0010741
-0.00120702
-0.00130471
-0.00141718
-0.00153214
-0.00162295
-0.00171092
-0.00184881
-0.00207162
-0.00237274
-0.00272501
-0.00309058
-0.00342341
-0.0037047
-0.00392217
-0.00400805
-0.000465747
-0.000541584
-0.000708006
-0.000925837
-0.00114159
-0.00129776
-0.00140497
-0.00151758
-0.00164203
-0.00175859
-0.0018736
-0.00202801
-0.00225719
-0.00256172
-0.00291774
-0.0032877
-0.00363128
-0.00392133
-0.00413854
-0.00421911
-0.000496797
-0.000577247
-0.000752495
-0.000979023
-0.00121018
-0.0013884
-0.00151041
-0.0016258
-0.00175595
-0.001892
-0.00203091
-0.0022024
-0.00244065
-0.00274723
-0.00310373
-0.00347737
-0.00382805
-0.0041257
-0.00434305
-0.00441978
-0.000532317
-0.000617038
-0.000801614
-0.0010379
-0.00128193
-0.0014795
-0.0016183
-0.00174053
-0.00187465
-0.0020242
-0.00218367
-0.00237016
-0.00261725
-0.00292775
-0.00328273
-0.0036573
-0.00401319
-0.00431646
-0.00453493
-0.00460859
-0.000572673
-0.000661384
-0.000855016
-0.00110211
-0.00135791
-0.0015721
-0.00172774
-0.00185971
-0.00199808
-0.00215586
-0.00233098
-0.00253156
-0.00278463
-0.00309859
-0.0034535
-0.00382585
-0.00418472
-0.00449227
-0.00471241
-0.00478473
-0.000618133
-0.000710693
-0.000912839
-0.00117122
-0.00143847
-0.00166727
-0.00183901
-0.00198149
-0.00212489
-0.00228799
-0.00247259
-0.00268493
-0.00294287
-0.00325645
-0.00361188
-0.00398175
-0.00434063
-0.00465179
-0.00487349
-0.0049462
-0.00066881
-0.000765281
-0.000975475
-0.00124492
-0.00152369
-0.00176581
-0.00195242
-0.00210557
-0.0022536
-0.00242014
-0.00260943
-0.00282798
-0.00308992
-0.00340083
-0.00375348
-0.00412203
-0.00447921
-0.00479285
-0.00501661
-0.00509039
-0.000724773
-0.000825288
-0.00104328
-0.0013232
-0.00161351
-0.00186844
-0.00206824
-0.00223155
-0.00238368
-0.0025512
-0.00274195
-0.00296077
-0.00322213
-0.00352962
-0.00387528
-0.00424073
-0.00459634
-0.00491093
-0.005138
-0.00521397
-0.000786246
-0.000890703
-0.00111648
-0.00140641
-0.00170775
-0.00197535
-0.00218739
-0.00235955
-0.00251505
-0.00268103
-0.00286942
-0.00308394
-0.00333727
-0.00363753
-0.00397408
-0.00433154
-0.00468456
-0.00499908
-0.00523019
-0.00531059
-0.000853378
-0.000961533
-0.00119507
-0.00149466
-0.00180669
-0.00208667
-0.00231056
-0.00249075
-0.0026482
-0.00281053
-0.00299222
-0.00319716
-0.00343502
-0.00371879
-0.00404146
-0.00438655
-0.00473388
-0.00504881
-0.00528489
-0.00537336
-0.000926387
-0.00103801
-0.00127901
-0.00158753
-0.00191036
-0.00220354
-0.00243876
-0.002626
-0.00278413
-0.00294055
-0.00311225
-0.00330193
-0.00351701
-0.00377065
-0.00406516
-0.00438787
-0.00472361
-0.00504095
-0.00528838
-0.00539494
-0.00100548
-0.00112072
-0.00136739
-0.00168516
-0.00201911
-0.00232601
-0.00257389
-0.00276796
-0.00292515
-0.0030726
-0.00322957
-0.00339745
-0.00358442
-0.00379819
-0.004044
-0.0043227
-0.00462164
-0.00492118
-0.005178
-0.00532322
-0.00108921
-0.00120716
-0.00146091
-0.00178933
-0.00213467
-0.00245431
-0.00271589
-0.00292108
-0.00307969
-0.00321473
-0.00334754
-0.00348087
-0.00362787
-0.00379591
-0.00398975
-0.00421675
-0.00446045
-0.004701
-0.00490698
-0.00501299
-0.00117632
-0.0012968
-0.00156062
-0.00190031
-0.00225561
-0.00258788
-0.00286448
-0.00308604
-0.0032595
-0.00339593
-0.00350228
-0.00356537
-0.00359441
-0.0036235
-0.00368729
-0.00382654
-0.00406384
-0.00438201
-0.00472024
-0.00497976
-0.00126867
-0.0013953
-0.00166485
-0.00201208
-0.00237473
-0.00271965
-0.00301506
-0.00326074
-0.0034602
-0.00362591
-0.003793
-0.00394279
-0.00399251
-0.00386811
-0.00358024
-0.00326159
-0.00300831
-0.00283823
-0.00276346
-0.00282555
-0.00136688
-0.00150273
-0.00177681
-0.00212744
-0.00249161
-0.0028408
-0.00314768
-0.00341655
-0.0036416
-0.00379348
-0.00381331
-0.0036679
-0.00345592
-0.00328791
-0.00319742
-0.00316324
-0.00315987
-0.00316249
-0.00317332
-0.00324203
-0.0014686
-0.00159984
-0.00188802
-0.00226272
-0.00266066
-0.00304898
-0.00337997
-0.00359222
-0.00363774
-0.00357135
-0.00349521
-0.00344512
-0.00341278
-0.00337446
-0.00328794
-0.00313815
-0.00293492
-0.00272679
-0.00257921
-0.00257665
-0.00160087
-0.00173325
-0.00195675
-0.00226182
-0.00261157
-0.00295711
-0.00323588
-0.00342096
-0.00352146
-0.00356401
-0.00361295
-0.00368668
-0.00377022
-0.00387448
-0.00396504
-0.00397944
-0.00385544
-0.00355781
-0.00315085
-0.00281463
-0.00170959
-0.00187666
-0.00212016
-0.00242208
-0.00273496
-0.00303134
-0.0032756
-0.00344533
-0.0035484
-0.00358027
-0.00356492
-0.00353244
-0.00345665
-0.0033355
-0.00319033
-0.00302311
-0.00285411
-0.00270976
-0.00263752
-0.00271285
-0.00171778
-0.00187723
-0.00216966
-0.00253966
-0.00290219
-0.00319014
-0.00337875
-0.00345914
-0.00347415
-0.00346106
-0.00344288
-0.00345308
-0.00347498
-0.00347411
-0.00345179
-0.00339743
-0.00330911
-0.00320609
-0.00313907
-0.00319459
0.0300189
0.0200763
0.00825711
0.000216758
-0.00263617
-0.00264616
-0.00253592
-0.00297109
-0.00356786
-0.00397907
-0.00420501
-0.00436064
-0.0045215
-0.00479466
-0.0052289
-0.00567503
-0.00597974
-0.00620803
-0.0064847
-0.00682719
-0.00721543
-0.00760241
-0.00792877
-0.00823237
-0.00859795
-0.00901635
-0.00941268
-0.00974859
-0.0100486
-0.0103629
-0.0107018
-0.0110268
-0.0113241
-0.0116269
-0.011958
-0.0123006
-0.0126443
-0.013008
-0.0133991
-0.0137849
-0.0141434
-0.0145012
-0.0148783
-0.015245
-0.0155864
-0.015945
-0.0163408
-0.0167452
-0.0171478
-0.0175681
-0.018007
-0.0184304
-0.0188397
-0.0192688
-0.0197015
-0.0201235
-0.0205674
-0.0210318
-0.0214979
-0.0219754
-0.0224643
-0.0229556
-0.0234535
-0.0239557
-0.0244606
-0.0249761
-0.0255044
-0.0260445
-0.0265981
-0.0271564
-0.027721
-0.0282949
-0.0288819
-0.029477
-0.0300818
-0.0306955
-0.0313167
-0.0319485
-0.0325937
-0.0332483
-0.0339138
-0.0345853
-0.0352702
-0.0359659
-0.036675
-0.037394
-0.0381245
-0.0388658
-0.0396198
-0.0403875
-0.0411701
-0.0419647
-0.0427717
-0.043593
-0.044429
-0.0452771
-0.0461505
-0.0470179
-0.0478618
-0.0487347
0.0283242
0.019873
0.00833715
0.000351797
-0.00254647
-0.00259959
-0.00250799
-0.00295411
-0.00355696
-0.0039711
-0.00419845
-0.00435478
-0.00451579
-0.00478902
-0.00522385
-0.00567084
-0.00597609
-0.0062046
-0.00648149
-0.00682423
-0.00721277
-0.00760012
-0.00792671
-0.00823036
-0.00859602
-0.00901462
-0.00941113
-0.00974718
-0.0100473
-0.0103616
-0.0107006
-0.0110257
-0.0113231
-0.0116259
-0.011957
-0.0122998
-0.0126434
-0.0130072
-0.0133983
-0.0137842
-0.0141428
-0.0145006
-0.0148777
-0.0152444
-0.0155858
-0.0159445
-0.0163403
-0.0167448
-0.0171474
-0.0175677
-0.0180065
-0.01843
-0.0188393
-0.0192685
-0.0197011
-0.0201231
-0.0205671
-0.0210314
-0.0214976
-0.0219751
-0.022464
-0.0229553
-0.0234532
-0.0239554
-0.0244604
-0.0249759
-0.0255042
-0.0260443
-0.0265979
-0.0271562
-0.0277208
-0.0282947
-0.0288817
-0.0294769
-0.0300817
-0.0306953
-0.0313165
-0.0319484
-0.0325936
-0.0332481
-0.0339137
-0.0345852
-0.0352701
-0.0359657
-0.0366748
-0.0373939
-0.0381244
-0.0388657
-0.0396197
-0.0403874
-0.04117
-0.0419646
-0.0427716
-0.0435929
-0.044429
-0.045277
-0.0461504
-0.0470179
-0.0478618
-0.0487346
0.0270374
0.0197569
0.00853099
0.000603569
-0.00240283
-0.00254571
-0.00247872
-0.00293045
-0.00353884
-0.00395803
-0.00418923
-0.00434833
-0.00451081
-0.00478439
-0.00521931
-0.00566663
-0.00597229
-0.00620121
-0.0064785
-0.00682147
-0.00721022
-0.0075979
-0.00792474
-0.00822851
-0.00859431
-0.00901311
-0.00940978
-0.00974592
-0.0100461
-0.0103605
-0.0106995
-0.0110247
-0.0113221
-0.011625
-0.0119562
-0.012299
-0.0126427
-0.0130065
-0.0133977
-0.0137836
-0.0141422
-0.0145
-0.0148772
-0.015244
-0.0155854
-0.015944
-0.0163398
-0.0167443
-0.017147
-0.0175673
-0.0180062
-0.0184297
-0.0188389
-0.0192681
-0.0197008
-0.0201228
-0.0205668
-0.0210312
-0.0214974
-0.0219748
-0.0224637
-0.0229551
-0.023453
-0.0239552
-0.0244602
-0.0249757
-0.025504
-0.0260441
-0.0265977
-0.027156
-0.0277206
-0.0282946
-0.0288816
-0.0294767
-0.0300815
-0.0306952
-0.0313164
-0.0319482
-0.0325935
-0.033248
-0.0339136
-0.0345851
-0.03527
-0.0359656
-0.0366747
-0.0373938
-0.0381243
-0.0388656
-0.0396196
-0.0403873
-0.0411699
-0.0419645
-0.0427715
-0.0435928
-0.0444289
-0.0452769
-0.0461503
-0.0470178
-0.0478617
-0.0487347
0.025835
0.0195899
0.0087465
0.000903576
-0.00221701
-0.00247445
-0.00243677
-0.00289245
-0.00350728
-0.00393436
-0.0041728
-0.0043382
-0.00450511
-0.00478028
-0.00521458
-0.0056611
-0.00596708
-0.00619716
-0.00647536
-0.00681844
-0.00720699
-0.0075948
-0.0079221
-0.00822633
-0.00859243
-0.00901137
-0.00940817
-0.00974448
-0.0100448
-0.0103592
-0.0106983
-0.0110236
-0.0113211
-0.011624
-0.0119553
-0.0122981
-0.0126419
-0.0130057
-0.013397
-0.013783
-0.0141416
-0.0144994
-0.0148766
-0.0152435
-0.0155848
-0.0159435
-0.0163393
-0.0167439
-0.0171465
-0.0175668
-0.0180058
-0.0184293
-0.0188386
-0.0192678
-0.0197005
-0.0201225
-0.0205665
-0.0210309
-0.0214971
-0.0219745
-0.0224635
-0.0229549
-0.0234528
-0.023955
-0.02446
-0.0249755
-0.0255038
-0.0260439
-0.0265975
-0.0271559
-0.0277205
-0.0282944
-0.0288814
-0.0294766
-0.0300814
-0.030695
-0.0313163
-0.0319481
-0.0325933
-0.0332479
-0.0339135
-0.034585
-0.0352698
-0.0359655
-0.0366746
-0.0373937
-0.0381242
-0.0388656
-0.0396195
-0.0403872
-0.0411698
-0.0419645
-0.0427714
-0.0435928
-0.0444288
-0.0452769
-0.0461503
-0.0470178
-0.0478617
-0.0487348
0.0246222
0.0193394
0.00895336
0.00121685
-0.00201437
-0.00239509
-0.00238873
-0.00284394
-0.00346292
-0.00389887
-0.00414702
-0.00432207
-0.00449712
-0.00477602
-0.00520923
-0.00565351
-0.00595962
-0.00619195
-0.00647207
-0.0068153
-0.00720291
-0.00759027
-0.00791821
-0.00822343
-0.00859001
-0.00900893
-0.00940582
-0.00974254
-0.0100432
-0.0103578
-0.0106968
-0.0110221
-0.0113198
-0.0116228
-0.0119541
-0.012297
-0.0126409
-0.0130049
-0.0133962
-0.0137822
-0.0141409
-0.0144988
-0.014876
-0.0152429
-0.0155843
-0.0159429
-0.0163388
-0.0167434
-0.0171461
-0.0175664
-0.0180054
-0.0184289
-0.0188382
-0.0192674
-0.0197002
-0.0201222
-0.0205661
-0.0210306
-0.0214968
-0.0219742
-0.0224632
-0.0229546
-0.0234525
-0.0239547
-0.0244597
-0.0249753
-0.0255035
-0.0260437
-0.0265973
-0.0271557
-0.0277203
-0.0282942
-0.0288812
-0.0294764
-0.0300812
-0.0306949
-0.0313161
-0.031948
-0.0325932
-0.0332478
-0.0339133
-0.0345849
-0.0352697
-0.0359654
-0.0366745
-0.0373936
-0.0381241
-0.0388655
-0.0396194
-0.0403871
-0.0411697
-0.0419644
-0.0427713
-0.0435927
-0.0444287
-0.0452768
-0.0461502
-0.0470177
-0.0478617
-0.0487351
0.0234091
0.0190202
0.00915409
0.00153749
-0.00180192
-0.00231238
-0.0023411
-0.00279249
-0.00341216
-0.00385584
-0.00411412
-0.00430056
-0.00448641
-0.00477092
-0.00520284
-0.00564375
-0.00594986
-0.00618548
-0.00646863
-0.00681225
-0.00719822
-0.0075844
-0.00791306
-0.00821977
-0.00858689
-0.00900539
-0.00940221
-0.00973971
-0.0100413
-0.010356
-0.0106949
-0.0110203
-0.0113182
-0.0116214
-0.0119526
-0.0122955
-0.0126396
-0.0130037
-0.0133952
-0.0137813
-0.0141401
-0.014498
-0.0148753
-0.0152422
-0.0155836
-0.0159422
-0.0163381
-0.0167428
-0.0171455
-0.0175659
-0.0180049
-0.0184285
-0.0188377
-0.019267
-0.0196998
-0.0201218
-0.0205657
-0.0210302
-0.0214964
-0.0219739
-0.0224629
-0.0229543
-0.0234522
-0.0239545
-0.0244595
-0.024975
-0.0255033
-0.0260435
-0.0265971
-0.0271555
-0.0277201
-0.028294
-0.028881
-0.0294762
-0.0300811
-0.0306947
-0.031316
-0.0319478
-0.0325931
-0.0332476
-0.0339132
-0.0345847
-0.0352696
-0.0359653
-0.0366744
-0.0373935
-0.038124
-0.0388654
-0.0396193
-0.040387
-0.0411696
-0.0419643
-0.0427712
-0.0435926
-0.0444286
-0.0452767
-0.0461501
-0.0470177
-0.0478618
-0.0487354
0.0222159
0.0186462
0.00934578
0.00186111
-0.00158148
-0.00222654
-0.00229518
-0.00274101
-0.00335858
-0.00380878
-0.00407699
-0.00427543
-0.00447338
-0.00476459
-0.00519524
-0.00563226
-0.00593837
-0.00617799
-0.00646497
-0.00680926
-0.00719317
-0.00757763
-0.00790709
-0.00821567
-0.00858316
-0.00900061
-0.00939702
-0.00973563
-0.0100386
-0.0103539
-0.0106925
-0.0110179
-0.0113163
-0.0116198
-0.0119507
-0.0122936
-0.0126379
-0.0130023
-0.0133938
-0.0137801
-0.0141391
-0.0144972
-0.0148744
-0.0152413
-0.0155827
-0.0159414
-0.0163373
-0.016742
-0.0171448
-0.0175653
-0.0180043
-0.0184279
-0.0188372
-0.0192665
-0.0196993
-0.0201213
-0.0205653
-0.0210298
-0.021496
-0.0219735
-0.0224626
-0.022954
-0.0234519
-0.0239542
-0.0244592
-0.0249747
-0.025503
-0.0260432
-0.0265968
-0.0271552
-0.0277199
-0.0282938
-0.0288808
-0.029476
-0.0300809
-0.0306945
-0.0313158
-0.0319476
-0.0325929
-0.0332475
-0.0339131
-0.0345846
-0.0352695
-0.0359652
-0.0366743
-0.0373934
-0.0381239
-0.0388652
-0.0396192
-0.0403869
-0.0411695
-0.0419642
-0.0427711
-0.0435925
-0.0444285
-0.0452766
-0.04615
-0.0470177
-0.0478618
-0.0487358
0.0210583
0.01822
0.00951787
0.00218283
-0.00135266
-0.00213533
-0.0022501
-0.00269003
-0.00330319
-0.00375902
-0.0040371
-0.0042478
-0.00445843
-0.00475701
-0.00518661
-0.00561961
-0.0059258
-0.00616982
-0.00646102
-0.00680613
-0.00718782
-0.00757039
-0.00790086
-0.00821159
-0.00857919
-0.00899485
-0.00939034
-0.00973021
-0.0100351
-0.010351
-0.0106894
-0.011015
-0.0113142
-0.0116181
-0.0119488
-0.0122913
-0.0126358
-0.0130004
-0.0133919
-0.0137783
-0.0141378
-0.0144961
-0.0148733
-0.0152402
-0.0155818
-0.0159405
-0.0163363
-0.016741
-0.017144
-0.0175645
-0.0180036
-0.0184273
-0.0188367
-0.0192659
-0.0196987
-0.0201207
-0.0205648
-0.0210293
-0.0214956
-0.0219731
-0.0224622
-0.0229536
-0.0234515
-0.0239538
-0.0244588
-0.0249743
-0.0255027
-0.0260429
-0.0265966
-0.0271549
-0.0277196
-0.0282936
-0.0288806
-0.0294758
-0.0300806
-0.0306943
-0.0313156
-0.0319475
-0.0325927
-0.0332473
-0.0339129
-0.0345844
-0.0352693
-0.035965
-0.0366741
-0.0373933
-0.0381238
-0.0388651
-0.0396191
-0.0403868
-0.0411694
-0.0419641
-0.042771
-0.0435924
-0.0444284
-0.0452765
-0.0461499
-0.0470176
-0.0478619
-0.0487364
0.0199459
0.0177409
0.0096613
0.00250102
-0.00111296
-0.00203576
-0.00220481
-0.00264002
-0.00324669
-0.00370717
-0.00399505
-0.00421809
-0.00444181
-0.00474836
-0.00517723
-0.00560619
-0.00591248
-0.00616111
-0.00645673
-0.00680273
-0.00718216
-0.00756287
-0.00789459
-0.00820772
-0.00857528
-0.00898856
-0.00938261
-0.00972365
-0.0100307
-0.0103475
-0.0106855
-0.0110114
-0.0113118
-0.0116164
-0.0119467
-0.012289
-0.0126336
-0.0129983
-0.0133895
-0.0137759
-0.014136
-0.0144948
-0.014872
-0.015239
-0.0155809
-0.0159396
-0.0163351
-0.0167398
-0.0171429
-0.0175635
-0.0180026
-0.0184264
-0.018836
-0.0192653
-0.019698
-0.0201201
-0.0205641
-0.0210287
-0.021495
-0.0219726
-0.0224617
-0.0229531
-0.0234511
-0.0239534
-0.0244584
-0.0249739
-0.0255023
-0.0260425
-0.0265962
-0.0271546
-0.0277193
-0.0282932
-0.0288803
-0.0294755
-0.0300804
-0.0306941
-0.0313153
-0.0319472
-0.0325925
-0.0332471
-0.0339127
-0.0345842
-0.0352691
-0.0359648
-0.036674
-0.0373931
-0.0381236
-0.038865
-0.0396189
-0.0403867
-0.0411693
-0.0419639
-0.0427709
-0.0435923
-0.0444283
-0.0452764
-0.0461498
-0.0470175
-0.0478619
-0.048737
0.0188835
0.0172115
0.00977156
0.00281553
-0.0008608
-0.00192602
-0.00215915