/*--------------------------------*- C++ -*----------------------------------*\
| =========                 |                                                 |
| \\      /  F ield         | OpenFOAM: The Open Source CFD Toolbox           |
|  \\    /   O peration     | Version:  2506                                  |
|   \\  /    A nd           | Website:  www.openfoam.com                      |
|    \\/     M anipulation  |                                                 |
\*---------------------------------------------------------------------------*/
FoamFile
{
    version     2.0;
    format      ascii;
    arch        "LSB;label=32;scalar=64";
    class       volVectorField;
    location    "2.45";
    object      U;
}
// * * * * * * * * * * * * * * * * * * * * * * * * * * * * * * * * * * * * * //

dimensions      [0 1 -1 0 0 0 0];

internalField   nonuniform List<vector> 
9600
(
(0.858951 0.000822036 0)
(1.1287 -0.00383483 0)
(0.884902 0.0018368 0)
(1.15161 0.00605972 0)
(0.842752 0.0026621 0)
(1.04611 -0.00842629 0)
(0.91822 -0.00528617 0)
(1.13103 -0.0144288 0)
(0.881898 0.00502553 0)
(1.15588 0.00497193 0)
(0.852105 0.00815898 0)
(1.10279 0.0141557 0)
(0.870899 0.00506925 0)
(1.05103 0.00292909 0)
(0.889803 -0.0046266 0)
(1.04328 -0.00644718 0)
(0.891122 -0.00478978 0)
(1.05623 -0.016757 0)
(0.86344 -0.00156488 0)
(1.07643 -0.0209474 0)
(0.868661 0.000832615 0)
(1.11721 -0.00384552 0)
(0.89362 0.0014452 0)
(1.13817 0.00651888 0)
(0.863855 0.00358271 0)
(1.03165 -0.00899747 0)
(0.927835 -0.00656832 0)
(1.11398 -0.0137633 0)
(0.894346 0.00448162 0)
(1.13432 0.00561692 0)
(0.878272 0.0086971 0)
(1.06945 0.0140534 0)
(0.914312 0.00595536 0)
(1.01159 0.00265 0)
(0.941789 -0.00443965 0)
(0.994126 -0.00659847 0)
(0.958546 -0.00489317 0)
(0.986183 -0.0167166 0)
(0.959134 -0.00138332 0)
(0.972409 -0.0225751 0)
(0.887148 0.00086518 0)
(1.09674 -0.00390113 0)
(0.911177 0.00113946 0)
(1.11281 0.00697249 0)
(0.896992 0.00434797 0)
(1.01298 -0.00949179 0)
(0.944172 -0.00754668 0)
(1.08774 -0.0132555 0)
(0.920875 0.00400056 0)
(1.09683 0.00607294 0)
(0.920632 0.00949381 0)
(1.02448 0.0137011 0)
(0.95451 0.00677518 0)
(0.985317 0.00221864 0)
(0.968901 -0.00422542 0)
(0.978673 -0.00688861 0)
(0.976402 -0.0050301 0)
(0.979809 -0.0161429 0)
(0.973642 -0.00231306 0)
(0.979487 -0.0181842 0)
(0.911318 0.000923079 0)
(1.07147 -0.00397144 0)
(0.933557 0.000957681 0)
(1.08167 0.00716806 0)
(0.932091 0.00506056 0)
(0.997336 -0.00977671 0)
(0.961507 -0.00834968 0)
(1.05979 -0.0130108 0)
(0.951367 0.00386806 0)
(1.05929 0.00616875 0)
(0.957569 0.0104015 0)
(0.995293 0.0133214 0)
(0.975743 0.00720358 0)
(0.981595 0.00204333 0)
(0.978815 -0.0041517 0)
(0.981032 -0.00708594 0)
(0.981766 -0.00495377 0)
(0.982788 -0.0162139 0)
(0.977948 -0.00215257 0)
(0.981111 -0.0167974 0)
(0.936825 0.00100219 0)
(1.04666 -0.00405011 0)
(0.955353 0.000831205 0)
(1.0519 0.00721225 0)
(0.961665 0.00569329 0)
(0.989211 -0.00991657 0)
(0.974736 -0.00903056 0)
(1.0364 -0.0129393 0)
(0.975243 0.00390001 0)
(1.03257 0.00614793 0)
(0.980059 0.0112041 0)
(0.986016 0.0131664 0)
(0.986311 0.00732414 0)
(0.987225 0.00197815 0)
(0.986266 -0.00408369 0)
(0.985678 -0.00718781 0)
(0.987469 -0.00497476 0)
(0.985399 -0.0159653 0)
(0.981861 -0.00227102 0)
(0.982162 -0.0156064 0)
(0.959562 0.00108757 0)
(1.02659 -0.00412608 0)
(0.972536 0.000759613 0)
(1.0287 0.0071812 0)
(0.982627 0.00616125 0)
(0.988627 -0.0099231 0)
(0.982734 -0.00953325 0)
(1.01956 -0.0129834 0)
(0.988692 0.00395108 0)
(1.01763 0.0061573 0)
(0.991044 0.0117685 0)
(0.987641 0.0131421 0)
(0.993823 0.00728421 0)
(0.99414 0.00191548 0)
(0.993321 -0.00395408 0)
(0.990505 -0.00725848 0)
(0.992182 -0.00495202 0)
(0.988443 -0.0155615 0)
(0.984484 -0.00250208 0)
(0.983865 -0.0142292 0)
(0.976987 0.00116205 0)
(1.01305 -0.00417666 0)
(0.983754 0.000730762 0)
(1.01372 0.00709606 0)
(0.995693 0.00644452 0)
(0.992571 -0.00981204 0)
(0.987328 -0.00984185 0)
(1.00811 -0.0130834 0)
(0.993577 0.00397133 0)
(1.0102 0.00617804 0)
(0.996135 0.0121 0)
(0.99249 0.0131129 0)
(1.00026 0.00718396 0)
(1.00027 0.0018609 0)
(0.999053 -0.00378809 0)
(0.995098 -0.00724536 0)
(0.9957 -0.00489438 0)
(0.991364 -0.0150434 0)
(0.986373 -0.00275423 0)
(0.985373 -0.012732 0)
(0.988567 0.00121524 0)
(1.00539 -0.00419089 0)
(0.989916 0.000720457 0)
(1.0056 0.00697135 0)
(1.00318 0.00657239 0)
(0.997765 -0.00962403 0)
(0.990607 -0.00997197 0)
(1.00027 -0.0131737 0)
(0.993569 0.00393426 0)
(1.00608 0.00615689 0)
(0.998752 0.0122491 0)
(0.99726 0.0130355 0)
(1.00545 0.00707149 0)
(1.00513 0.00182119 0)
(1.00329 -0.0035892 0)
(0.998845 -0.00714821 0)
(0.998433 -0.00482431 0)
(0.99379 -0.0144212 0)
(0.988027 -0.00297795 0)
(0.986608 -0.0111998 0)
(0.995297 0.00124572 0)
(1.0017 -0.00417221 0)
(0.992862 0.000715494 0)
(1.00183 0.00681868 0)
(1.00721 0.0065874 0)
(1.00222 -0.00940132 0)
(0.993541 -0.0099496 0)
(0.994943 -0.0132082 0)
(0.991664 0.00384006 0)
(1.003 0.00607068 0)
(1.00007 0.0122518 0)
(1.00089 0.012906 0)
(1.00911 0.00695685 0)
(1.00851 0.00180376 0)
(1.00618 -0.00336353 0)
(1.00152 -0.00699182 0)
(1.00046 -0.00474867 0)
(0.995698 -0.013701 0)
(0.989506 -0.00316888 0)
(0.987714 -0.00969891 0)
(0.998766 0.00125856 0)
(1.00014 -0.00413043 0)
(0.994213 0.000712969 0)
(1.00024 0.00664398 0)
(1.0092 0.00653038 0)
(1.0053 -0.0091701 0)
(0.996182 -0.00980997 0)
(0.991603 -0.0131674 0)
(0.989555 0.00371005 0)
(1.00028 0.00592704 0)
(1.00038 0.0121301 0)
(1.00311 0.0127299 0)
(1.01125 0.00683868 0)
(1.01045 0.00181319 0)
(1.00786 -0.00313223 0)
(1.00321 -0.0067877 0)
(1.00179 -0.00467597 0)
(0.997101 -0.0128985 0)
(0.990763 -0.00333793 0)
(0.988718 -0.00827322 0)
(1.00039 0.00126053 0)
(0.99952 -0.00407517 0)
(0.994912 0.000712783 0)
(0.999521 0.00645353 0)
(1.00995 0.00643004 0)
(1.00708 -0.00894494 0)
(0.998312 -0.00959198 0)
(0.989855 -0.0130522 0)
(0.987929 0.00356813 0)
(0.997955 0.00574822 0)
(0.999948 0.0119075 0)
(1.00401 0.0125184 0)
(1.01211 0.0067106 0)
(1.01121 0.00184283 0)
(1.00858 -0.00291836 0)
(1.00408 -0.00653712 0)
(1.00251 -0.00461074 0)
(0.998031 -0.0120561 0)
(0.991774 -0.00348691 0)
(0.989589 -0.0069415 0)
(1.00111 0.00125649 0)
(0.999305 -0.0040127 0)
(0.995356 0.000714805 0)
(0.999091 0.00625605 0)
(1.00999 0.00630202 0)
(1.00793 -0.00873182 0)
(0.999824 -0.00932958 0)
(0.989262 -0.0128738 0)
(0.986924 0.00343024 0)
(0.996187 0.00555716 0)
(0.999141 0.0116099 0)
(1.00395 0.0122819 0)
(1.01207 0.00656756 0)
(1.01116 0.00189062 0)
(1.00864 -0.00273065 0)
(1.00438 -0.00624733 0)
(1.00277 -0.00456281 0)
(0.998571 -0.011202 0)
(0.992552 -0.00359214 0)
(0.990309 -0.00573197 0)
(1.00143 0.00124887 0)
(0.999271 -0.00394649 0)
(0.995669 0.000720411 0)
(0.998758 0.00605667 0)
(1.00969 0.00615677 0)
(1.00819 -0.00852859 0)
(1.00078 -0.00904732 0)
(0.989375 -0.0126454 0)
(0.986444 0.00330176 0)
(0.994995 0.00537145 0)
(0.998286 0.0112602 0)
(1.00335 0.0120347 0)
(1.01153 0.00640327 0)
(1.01066 0.00195338 0)
(1.00832 -0.00256832 0)
(1.00433 -0.00593407 0)
(1.00275 -0.00453085 0)
(0.998835 -0.0103571 0)
(0.993136 -0.00362246 0)
(0.990884 -0.00466643 0)
(1.00156 0.00123854 0)
(0.999318 -0.00387775 0)
(0.9959 0.00073047 0)
(0.99849 0.00585702 0)
(1.00927 0.00600073 0)
(1.00815 -0.00833131 0)
(1.00132 -0.00876087 0)
(0.989829 -0.0123789 0)
(0.986331 0.00318292 0)
(0.994265 0.00520365 0)
(0.997569 0.0108762 0)
(1.00253 0.0117878 0)
(1.01079 0.00621351 0)
(1.00998 0.00202947 0)
(1.00784 -0.00243036 0)
(1.00412 -0.00561184 0)
(1.00258 -0.0044828 0)
(0.998937 -0.00955925 0)
(0.993589 -0.00357615 0)
(0.991339 -0.00373638 0)
(1.00162 0.00122588 0)
(0.999384 -0.00380676 0)
(0.996084 0.000744553 0)
(0.998294 0.00565746 0)
(1.00887 0.00583693 0)
(1.00794 -0.00813542 0)
(1.00158 -0.00847915 0)
(0.990379 -0.0120812 0)
(0.986452 0.00306949 0)
(0.993846 0.00506058 0)
(0.997054 0.0104675 0)
(1.0017 0.0115477 0)
(1.01003 0.00599666 0)
(1.0093 0.00210901 0)
(1.00734 -0.002313 0)
(1.00387 -0.00528924 0)
(1.00238 -0.00439679 0)
(0.998963 -0.00882195 0)
(0.993968 -0.00346957 0)
(0.991712 -0.00293238 0)
(1.00165 0.00121125 0)
(0.999433 -0.00373371 0)
(0.99625 0.000761632 0)
(0.998173 0.00545779 0)
(1.00852 0.005667 0)
(1.00767 -0.00793785 0)
(1.00169 -0.00820528 0)
(0.990896 -0.0117576 0)
(0.986711 0.00295684 0)
(0.993629 0.00494275 0)
(0.996743 0.0100378 0)
(1.00099 0.011317 0)
(1.00935 0.00575717 0)
(1.0087 0.00219193 0)
(1.00689 -0.00220206 0)
(1.00364 -0.00497921 0)
(1.00218 -0.00425776 0)
(0.998971 -0.00814142 0)
(0.99432 -0.00331831 0)
(0.992037 -0.00223101 0)
(1.00166 0.00119507 0)
(0.999458 -0.00365874 0)
(0.996414 0.000780476 0)
(0.998118 0.00525755 0)
(1.00822 0.00549218 0)
(1.00739 -0.00773558 0)
(1.00172 -0.00794121 0)
(0.991336 -0.0114116 0)
(0.987052 0.00283889 0)
(0.993552 0.00484872 0)
(0.996611 0.00959071 0)
(1.00044 0.0110934 0)
(1.0088 0.005504 0)
(1.0082 0.00227453 0)
(1.00651 -0.00208267 0)
(1.00345 -0.00469847 0)
(1.00202 -0.00406134 0)
(0.998986 -0.00750267 0)
(0.994668 -0.00313912 0)
(0.992341 -0.00160496 0)
(1.00166 0.00117755 0)
(0.999468 -0.00358165 0)
(0.996575 0.000799329 0)
(0.998118 0.00505739 0)
(1.00795 0.00531191 0)
(1.0071 -0.00752509 0)
(1.0017 -0.0076882 0)
(0.991705 -0.0110431 0)
(0.987438 0.00270638 0)
(0.993581 0.00478113 0)
(0.996618 0.00912191 0)
(1.00006 0.0108791 0)
(1.00835 0.005238 0)
(1.0078 0.00233863 0)
(1.00619 -0.00193831 0)
(1.00331 -0.00445747 0)
(1.00188 -0.00381552 0)
(0.999018 -0.0068937 0)
(0.995022 -0.00295303 0)
(0.992642 -0.00102963 0)
(1.00164 0.00115887 0)
(0.999479 -0.00350259 0)
(0.996726 0.000817144 0)
(0.998164 0.00485781 0)
(1.00769 0.00512575 0)
(1.00684 -0.00730477 0)
(1.00166 -0.00744603 0)
(0.99203 -0.0106521 0)
(0.987844 0.00255693 0)
(0.99369 0.00473316 0)
(0.996715 0.00863827 0)
(0.999801 0.0106662 0)
(1.00797 0.00496624 0)
(1.00747 0.00237874 0)
(1.00589 -0.00175323 0)
(1.00321 -0.00425914 0)
(1.00177 -0.00353312 0)
(0.999065 -0.00629409 0)
(0.995385 -0.00278221 0)
(0.992951 -0.000507271 0)
(1.00159 0.00113928 0)
(0.999507 -0.00342161 0)
(0.996855 0.000832583 0)
(0.998248 0.00466013 0)
(1.00741 0.00493318 0)
(1.0066 -0.00707251 0)
(1.00159 -0.00721579 0)
(0.99234 -0.0102405 0)
(0.988251 0.00239109 0)
(0.993857 0.0047001 0)
(0.996861 0.00814284 0)
(0.999631 0.0104481 0)
(1.00763 0.00471565 0)
(1.0072 0.00238958 0)
(1.00559 -0.00152114 0)
(1.00313 -0.00408717 0)
(1.00167 -0.00323656 0)
(0.999124 -0.0056831 0)
(0.99575 -0.00263209 0)
(0.993275 -5.78638e-05 0)
(1.00151 0.00111855 0)
(0.99956 -0.00333796 0)
(0.996959 0.000844411 0)
(0.998366 0.00446543 0)
(1.00712 0.00473161 0)
(1.00637 -0.00682577 0)
(1.0015 -0.00699966 0)
(0.992654 -0.00980709 0)
(0.988649 0.00220525 0)
(0.994062 0.00468323 0)
(0.997023 0.00763627 0)
(0.999515 0.0102206 0)
(1.00729 0.00449404 0)
(1.00695 0.00235612 0)
(1.00529 -0.0012492 0)
(1.00307 -0.0039205 0)
(1.00158 -0.00294894 0)
(0.99919 -0.00505081 0)
(0.99611 -0.00249613 0)
(0.993621 0.000333338 0)
(1.0014 0.00109643 0)
(0.999639 -0.00325091 0)
(0.997036 0.000851274 0)
(0.998511 0.00427487 0)
(1.00681 0.00451988 0)
(1.00617 -0.00656355 0)
(1.0014 -0.00679672 0)
(0.99298 -0.00935416 0)
(0.989036 0.00200319 0)
(0.99429 0.00467292 0)
(0.997184 0.00713648 0)
(0.999431 0.0099672 0)
(1.00694 0.00429675 0)
(1.00673 0.00227949 0)
(1.00497 -0.000944498 0)
(1.00302 -0.00374633 0)
(1.0015 -0.00269332 0)
(0.999258 -0.00439139 0)
(0.996461 -0.0023625 0)
(0.993992 0.00066188 0)
(1.00127 0.00107291 0)
(0.999737 -0.00315971 0)
(0.997094 0.000850748 0)
(0.998671 0.00409227 0)
(1.00649 0.00429688 0)
(1.00598 -0.00628607 0)
(1.00127 -0.00660504 0)
(0.993319 -0.00888832 0)
(0.989414 0.0017913 0)
(0.99453 0.00466496 0)
(0.997339 0.00664626 0)
(0.999367 0.00968306 0)
(1.00658 0.00414149 0)
(1.00653 0.00216945 0)
(1.00464 -0.00061819 0)
(1.00297 -0.00354918 0)
(1.00145 -0.00247674 0)
(0.999328 -0.00372203 0)
(0.996798 -0.0022071 0)
(0.994392 0.000903585 0)
(1.00113 0.00104779 0)
(0.999843 -0.00306331 0)
(0.997143 0.000841887 0)
(0.998834 0.00391992 0)
(1.00617 0.00406266 0)
(1.00579 -0.00599497 0)
(1.00114 -0.00642409 0)
(0.993663 -0.00841086 0)
(0.98979 0.00156931 0)
(0.994771 0.00464942 0)
(0.997487 0.00617693 0)
(0.999315 0.0093677 0)
(1.0062 0.0040319 0)
(1.00635 0.00202403 0)
(1.0043 -0.000288421 0)
(1.00292 -0.00331125 0)
(1.00142 -0.00229887 0)
(0.999399 -0.00306933 0)
(0.997116 -0.00200915 0)
(0.994819 0.00105806 0)
(1.001 0.00102074 0)
(0.999946 -0.0029608 0)
(0.997195 0.000823063 0)
(0.998987 0.0037581 0)
(1.00585 0.00381702 0)
(1.0056 -0.00569103 0)
(1.00101 -0.00625477 0)
(0.994005 -0.00792211 0)
(0.990172 0.00134998 0)
(0.995005 0.00461713 0)
(0.997633 0.00574377 0)
(0.999269 0.00902017 0)
(1.00582 0.00395508 0)
(1.00617 0.00185776 0)
(1.00397 2.80501e-05 0)
(1.00285 -0.00302661 0)
(1.00142 -0.0021536 0)
(0.999475 -0.00245001 0)
(0.997413 -0.00175008 0)
(0.99527 0.00113033 0)
(1.00088 0.000992125 0)
(1.00004 -0.0028519 0)
(0.997261 0.000793216 0)
(0.999123 0.00360616 0)
(1.00554 0.00356 0)
(1.0054 -0.00537287 0)
(1.0009 -0.00609436 0)
(0.994339 -0.00743397 0)
(0.990567 0.00114173 0)
(0.995228 0.00456238 0)
(0.997778 0.00534468 0)
(0.999227 0.00864057 0)
(1.00543 0.00391211 0)
(1.006 0.00168994 0)
(1.00366 0.000324461 0)
(1.00275 -0.00269319 0)
(1.00144 -0.00203051 0)
(0.999559 -0.00187257 0)
(0.997686 -0.00142558 0)
(0.995736 0.00112943 0)
(1.00078 0.000960549 0)
(1.00011 -0.00273283 0)
(0.997345 0.000749129 0)
(0.999235 0.003467 0)
(1.00525 0.00329246 0)
(1.00519 -0.0050452 0)
(1.0008 -0.00593565 0)
(0.994659 -0.00695343 0)
(0.990977 0.000946101 0)
(0.995439 0.00448284 0)
(0.997926 0.00497576 0)
(0.999188 0.00823149 0)
(1.00505 0.00389011 0)
(1.00582 0.0015206 0)
(1.00337 0.000593513 0)
(1.00263 -0.00230886 0)
(1.0015 -0.00192587 0)
(0.999656 -0.00136162 0)
(0.997929 -0.00103954 0)
(0.996205 0.00108924 0)
(1.0007 0.000926372 0)
(1.00017 -0.00260381 0)
(0.997449 0.000689682 0)
(0.999325 0.00333969 0)
(1.00498 0.00301819 0)
(1.00497 -0.00471634 0)
(1.00073 -0.00577064 0)
(0.994966 -0.00648939 0)
(0.991402 0.000778173 0)
(0.995638 0.00437425 0)
(0.998076 0.00464123 0)
(0.999151 0.00781081 0)
(1.00467 0.0038837 0)
(1.00565 0.00136663 0)
(1.0031 0.000822891 0)
(1.00248 -0.00188146 0)
(1.00157 -0.00182125 0)
(0.999774 -0.000938074 0)
(0.998143 -0.000599762 0)
(0.996661 0.00105606 0)
(1.00064 0.000890054 0)
(1.00021 -0.00246725 0)
(0.99757 0.000620016 0)
(0.999397 0.00321747 0)
(1.00472 0.00274113 0)
(1.00474 -0.00438753 0)
(1.00067 -0.00560022 0)
(0.995261 -0.00605539 0)
(0.991837 0.000637299 0)
(0.995829 0.00424032 0)
(0.998228 0.0043394 0)
(0.999121 0.00738348 0)
(1.0043 0.00388878 0)
(1.00548 0.00123601 0)
(1.00287 0.00101089 0)
(1.0023 -0.00142022 0)
(1.00165 -0.00168964 0)
(0.999918 -0.00060581 0)
(0.998332 -0.000145193 0)
(0.997084 0.00107304 0)
(1.00059 0.000851262 0)
(1.00024 -0.00232259 0)
(0.997703 0.000537623 0)
(0.999456 0.0031065 0)
(1.00447 0.00246375 0)
(1.00449 -0.00406671 0)
(1.00062 -0.00541423 0)
(0.995547 -0.00564904 0)
(0.992278 0.000522956 0)
(0.996016 0.00408765 0)
(0.99838 0.0040641 0)
(0.999098 0.00694777 0)
(1.00393 0.00389508 0)
(1.00531 0.00113047 0)
(1.00268 0.00115794 0)
(1.0021 -0.000939537 0)
(1.00172 -0.0015199 0)
(1.00009 -0.000359396 0)
(0.998506 0.000290296 0)
(0.997458 0.00117356 0)
(1.00054 0.000809825 0)
(1.00026 -0.00216956 0)
(0.997844 0.000444823 0)
(0.999508 0.00300368 0)
(1.00422 0.00219615 0)
(1.00424 -0.0037635 0)
(1.00057 -0.00520325 0)
(0.995825 -0.00527409 0)
(0.99272 0.000431499 0)
(0.9962 0.00391582 0)
(0.998532 0.00380728 0)
(0.999088 0.00651904 0)
(1.00358 0.00391192 0)
(1.00514 0.0010592 0)
(1.00253 0.0012637 0)
(1.00189 -0.000460674 0)
(1.00177 -0.00130199 0)
(1.00028 -0.000178611 0)
(0.998678 0.000692309 0)
(0.997772 0.001374 0)
(1.0005 0.000766004 0)
(1.00027 -0.00201016 0)
(0.997989 0.000348215 0)
(0.999555 0.00289576 0)
(1.00399 0.00194502 0)
(1.004 -0.00348602 0)
(1.00053 -0.00497375 0)
(0.996098 -0.00492854 0)
(0.993159 0.000348657 0)
(0.99638 0.0037391 0)
(0.998682 0.00356784 0)
(0.999093 0.00610254 0)
(1.00323 0.00392876 0)
(1.00496 0.00101876 0)
(1.00242 0.00132829 0)
(1.00168 2.1102e-06 0)
(1.00179 -0.00103881 0)
(1.0005 -3.57189e-05 0)
(0.998865 0.00102751 0)
(0.998023 0.00165504 0)
(1.00047 0.000720741 0)
(1.00027 -0.00184648 0)
(0.998134 0.000245546 0)
(0.999599 0.00278306 0)
(1.00376 0.00171308 0)
(1.00375 -0.00323771 0)
(1.00048 -0.00472519 0)
(0.996363 -0.00460601 0)
(0.993593 0.000274101 0)
(0.996559 0.00355795 0)
(0.998828 0.00334762 0)
(0.999114 0.00569749 0)
(1.00289 0.00393881 0)
(1.00478 0.00101604 0)
(1.00235 0.00136015 0)
(1.00147 0.000433126 0)
(1.00178 -0.000735429 0)
(1.00073 9.09121e-05 0)
(0.999077 0.001272 0)
(0.998229 0.00196559 0)
(1.00043 0.00067448 0)
(1.00027 -0.00168236 0)
(0.998277 0.000145944 0)
(0.999641 0.00266148 0)
(1.00354 0.00150877 0)
(1.00351 -0.00301825 0)
(1.00044 -0.00446048 0)
(0.996622 -0.00430058 0)
(0.99402 0.000208619 0)
(0.996736 0.00337389 0)
(0.998969 0.00314576 0)
(0.999152 0.00531167 0)
(1.00257 0.00394761 0)
(1.00459 0.00104612 0)
(1.00231 0.00136511 0)
(1.00128 0.000824879 0)
(1.00174 -0.000400624 0)
(1.00095 0.000209616 0)
(0.999322 0.00145101 0)
(0.998417 0.00224704 0)
(1.0004 0.000627721 0)
(1.00026 -0.00152029 0)
(0.998418 5.82343e-05 0)
(0.999682 0.00251978 0)
(1.00332 0.00133241 0)
(1.00328 -0.00282616 0)
(1.0004 -0.00419602 0)
(0.996874 -0.00400485 0)
(0.994441 0.000151416 0)
(0.99691 0.0031904 0)
(0.999102 0.00296171 0)
(0.999206 0.00494618 0)
(1.00226 0.0039584 0)
(1.00439 0.00111591 0)
(1.0023 0.00134566 0)
(1.00111 0.00117029 0)
(1.00167 -4.78505e-05 0)
(1.00116 0.000330089 0)
(0.999594 0.00158748 0)
(0.998606 0.00246437 0)
(1.00037 0.000581249 0)
(1.00026 -0.00136213 0)
(0.998553 -1.58208e-05 0)
(0.999722 0.00235456 0)
(1.0031 0.00118358 0)
(1.00305 -0.00264174 0)
(1.00035 -0.00394017 0)
(0.997119 -0.00371583 0)
(0.994853 9.88862e-05 0)
(0.997085 0.00300595 0)
(0.999228 0.00279175 0)
(0.999278 0.00459883 0)
(1.00196 0.003957 0)
(1.00417 0.00121852 0)
(1.00232 0.00130539 0)
(1.00098 0.00145363 0)
(1.00156 0.000320333 0)
(1.00136 0.000458594 0)
(0.999886 0.00168579 0)
(0.998811 0.00262343 0)
(1.00033 0.000536181 0)
(1.00024 -0.00121391 0)
(0.998683 -6.82927e-05 0)
(0.999762 0.00216681 0)
(1.00288 0.00105083 0)
(1.00283 -0.00245648 0)
(1.00031 -0.00368587 0)
(0.997356 -0.00343596 0)
(0.995256 6.12513e-05 0)
(0.99726 0.00283257 0)
(0.999349 0.00264401 0)
(0.999366 0.00427194 0)
(1.00169 0.00393798 0)
(1.00394 0.00134448 0)
(1.00235 0.00125428 0)
(1.00088 0.00167324 0)
(1.00144 0.000698479 0)
(1.00152 0.000603151 0)
(1.00019 0.00175656 0)
(0.999036 0.00274824 0)
(1.0003 0.000492805 0)
(1.00023 -0.00107951 0)
(0.998806 -9.79568e-05 0)
(0.999801 0.00196598 0)
(1.00267 0.000920284 0)
(1.00262 -0.00227241 0)
(1.00028 -0.00342952 0)
(0.997586 -0.00316355 0)
(0.995649 4.37231e-05 0)
(0.997436 0.00268078 0)
(0.999463 0.00252145 0)
(0.999469 0.00395631 0)
(1.00145 0.00389317 0)
(1.00369 0.00149134 0)
(1.00239 0.001208 0)
(1.00083 0.00182399 0)
(1.0013 0.00106798 0)
(1.00164 0.000770424 0)
(1.0005 0.00179597 0)
(0.999283 0.00284507 0)
(1.00027 0.000451632 0)
(1.00021 -0.000959768 0)
(0.998921 -0.000112239 0)
(0.999836 0.00176505 0)
(1.00247 0.000785864 0)
(1.00241 -0.0020942 0)
(1.00024 -0.00316645 0)
(0.997809 -0.00288895 0)
(0.996032 4.32126e-05 0)
(0.997612 0.00254749 0)
(0.999567 0.0024132 0)
(0.999581 0.0036434 0)
(1.00123 0.00380218 0)
(1.00343 0.00164325 0)
(1.00242 0.00117552 0)
(1.00082 0.00190572 0)
(1.00116 0.00141128 0)
(1.00172 0.000970958 0)
(1.00082 0.00180889 0)
(0.999556 0.00290318 0)
(1.00024 0.00041221 0)
(1.0002 -0.000855791 0)
(0.999027 -0.000117564 0)
(0.999868 0.00157349 0)
(1.00228 0.000646684 0)
(1.00222 -0.00192604 0)
(1.00021 -0.00289245 0)
(0.998025 -0.00261708 0)
(0.996406 5.5497e-05 0)
(0.997786 0.00242868 0)
(0.999658 0.00231844 0)
(0.999699 0.00334445 0)
(1.00105 0.00367947 0)
(1.00316 0.00179219 0)
(1.00245 0.00116987 0)
(1.00086 0.00193375 0)
(1.00104 0.0017099 0)
(1.00176 0.00120547 0)
(1.00112 0.0018164 0)
(0.999859 0.00291401 0)
(1.00022 0.000375879 0)
(1.00018 -0.000770703 0)
(0.999126 -0.000115496 0)
(0.999897 0.00140117 0)
(1.0021 0.000503835 0)
(1.00204 -0.0017782 0)
(1.00018 -0.00261114 0)
(0.998233 -0.00233999 0)
(0.99677 8.14842e-05 0)
(0.997961 0.00232927 0)
(0.999738 0.0022435 0)
(0.99982 0.00306456 0)
(1.0009 0.00353253 0)
(1.00289 0.00193414 0)
(1.00247 0.00119862 0)
(1.00094 0.00192808 0)
(1.00095 0.00194973 0)
(1.00176 0.0014573 0)
(1.00139 0.00184203 0)
(1.00019 0.00287524 0)
(1.00019 0.000341101 0)
(1.00017 -0.000698526 0)
(0.999219 -0.000113095 0)
(0.999921 0.0012508 0)
(1.00193 0.000368153 0)
(1.00188 -0.00165816 0)
(1.00016 -0.00233164 0)
(0.998433 -0.00206081 0)
(0.997123 0.000122407 0)
(0.998137 0.0022426 0)
(0.999804 0.00218855 0)
(0.999939 0.00281039 0)
(1.00079 0.0033606 0)
(1.00263 0.00205829 0)
(1.00247 0.00125334 0)
(1.00105 0.00190336 0)
(1.00089 0.00213404 0)
(1.00173 0.00170924 0)
(1.00162 0.00190422 0)
(1.00054 0.00280534 0)
(1.00017 0.000309274 0)
(1.00016 -0.000632639 0)
(0.999308 -0.000123862 0)
(0.999942 0.00112795 0)
(1.00177 0.000234886 0)
(1.00174 -0.00156948 0)
(1.00016 -0.00206876 0)
(0.998625 -0.0017861 0)
(0.997466 0.000181268 0)
(0.998316 0.00217086 0)
(0.99986 0.0021541 0)
(1.00005 0.00259394 0)
(1.00072 0.00317508 0)
(1.00239 0.00215835 0)
(1.00245 0.00133187 0)
(1.00118 0.00186826 0)
(1.00088 0.00226352 0)
(1.00169 0.00194129 0)
(1.0018 0.00199944 0)
(1.00088 0.0027335 0)
(1.00014 0.000274012 0)
(1.00015 -0.000563626 0)
(0.999395 -0.00014999 0)
(0.999959 0.00102351 0)
(1.00161 0.000109795 0)
(1.00161 -0.00149755 0)
(1.00016 -0.00184537 0)
(0.998811 -0.00148467 0)
(0.997797 0.000259991 0)
(0.998496 0.00210846 0)
(0.999908 0.00213251 0)
(1.00016 0.00241935 0)
(1.00068 0.00298851 0)
(1.00218 0.00223263 0)
(1.00241 0.00143353 0)
(1.00133 0.00183706 0)
(1.00091 0.00234605 0)
(1.00164 0.00214921 0)
(1.00193 0.00211443 0)
(1.0012 0.00268214 0)
(1.00012 0.000242941 0)
(1.00014 -0.000505531 0)
(0.999477 -0.000174801 0)
(0.999973 0.000930354 0)
(1.00147 5.67954e-05 0)
(1.00151 -0.00140474 0)
(1.00018 -0.00161735 0)
(0.998992 -0.00121341 0)
(0.998111 0.000302817 0)
(0.99868 0.00200277 0)
(0.999955 0.00209256 0)
(1.00027 0.00227608 0)
(1.00068 0.00280619 0)
(1.002 0.00227386 0)
(1.00236 0.00154099 0)
(1.00147 0.0018175 0)
(1.00098 0.00238276 0)
(1.0016 0.00232257 0)
(1.00202 0.00223317 0)
(1.00148 0.00265386 0)
(1.0001 0.000214193 0)
(1.00013 -0.000455573 0)
(0.999558 -0.000193582 0)
(0.999992 0.000846419 0)
(1.00132 7.76216e-05 0)
(1.00142 -0.00127507 0)
(1.00022 -0.00139492 0)
(0.999165 -0.00100084 0)
(0.998409 0.000297226 0)
(0.998866 0.00184355 0)
(1 0.00202835 0)
(1.00036 0.00215902 0)
(1.00069 0.00264105 0)
(1.00185 0.00228979 0)
(1.00231 0.00164719 0)
(1.00161 0.00181258 0)
(1.00109 0.00237991 0)
(1.00158 0.00245235 0)
(1.00208 0.0023489 0)
(1.00173 0.00264551 0)
(1.00008 0.000182497 0)
(1.00012 -0.000397418 0)
(0.999637 -0.000216519 0)
(1.00002 0.000772301 0)
(1.00119 0.000119972 0)
(1.00133 -0.00113108 0)
(1.00027 -0.0012282 0)
(0.99933 -0.000799985 0)
(0.998686 0.000308227 0)
(0.999057 0.00169568 0)
(1.00006 0.0019692 0)
(1.00044 0.00207441 0)
(1.00073 0.00250118 0)
(1.00173 0.00228983 0)
(1.00225 0.0017464 0)
(1.00174 0.00182314 0)
(1.00122 0.00235789 0)
(1.00159 0.00254258 0)
(1.00212 0.00245908 0)
(1.00193 0.00265589 0)
(1.00007 0.000154382 0)
(1.00011 -0.00034093 0)
(0.999713 -0.000234488 0)
(1.00005 0.000697978 0)
(1.00107 0.000165242 0)
(1.00125 -0.000990383 0)
(1.00032 -0.00108326 0)
(0.999493 -0.000618119 0)
(0.998945 0.000348143 0)
(0.99925 0.00157712 0)
(1.00012 0.00190383 0)
(1.00053 0.00200558 0)
(1.00077 0.00237771 0)
(1.00164 0.0022732 0)
(1.00219 0.00183411 0)
(1.00186 0.00184684 0)
(1.00139 0.00232343 0)
(1.00164 0.00259125 0)
(1.00216 0.00255074 0)
(1.0021 0.00267422 0)
(1.00005 0.000126876 0)
(1.00011 -0.000284427 0)
(0.999784 -0.000248858 0)
(1.00009 0.000612527 0)
(1.00096 0.000213809 0)
(1.00118 -0.000839942 0)
(1.00038 -0.000943574 0)
(0.999654 -0.000456507 0)
(0.999188 0.000402898 0)
(0.99944 0.00147965 0)
(1.0002 0.00182548 0)
(1.00061 0.00193531 0)
(1.00083 0.00226891 0)
(1.00158 0.00224404 0)
(1.00214 0.00190441 0)
(1.00196 0.00188143 0)
(1.00156 0.00228279 0)
(1.00172 0.00260223 0)
(1.00219 0.00261752 0)
(1.00223 0.00269439 0)
(1.00004 0.000101862 0)
(1.0001 -0.000229417 0)
(0.99985 -0.000255747 0)
(1.00014 0.000520484 0)
(1.00087 0.00026281 0)
(1.00111 -0.000673976 0)
(1.00044 -0.0008041 0)
(0.999814 -0.000318617 0)
(0.999416 0.000459318 0)
(0.999623 0.00139783 0)
(1.00028 0.00174833 0)
(1.00069 0.00186493 0)
(1.0009 0.00217346 0)
(1.00155 0.00221409 0)
(1.0021 0.00195989 0)
(1.00205 0.00192573 0)
(1.00173 0.00225048 0)
(1.00182 0.00258591 0)
(1.00224 0.00265965 0)
(1.00234 0.00271426 0)
(1.00003 8.01406e-05 0)
(1.00009 -0.000179732 0)
(0.999908 -0.000251736 0)
(1.00019 0.000427843 0)
(1.00079 0.000305818 0)
(1.00104 -0.000502681 0)
(1.0005 -0.0006645 0)
(0.999972 -0.000201613 0)
(0.99963 0.000510827 0)
(0.999799 0.00133811 0)
(1.00037 0.00168283 0)
(1.00077 0.00180022 0)
(1.00098 0.00207901 0)
(1.00154 0.00217781 0)
(1.00208 0.00200008 0)
(1.00212 0.00196623 0)
(1.00189 0.00222788 0)
(1.00195 0.00254934 0)
(1.0023 0.00267142 0)
(1.00243 0.00272606 0)
(1.00001 6.27687e-05 0)
(1.00008 -0.000135529 0)
(0.999958 -0.000232617 0)
(1.00024 0.000337118 0)
(1.00073 0.000330354 0)
(1.00098 -0.000333189 0)
(1.00055 -0.000521666 0)
(1.00012 -9.92467e-05 0)
(0.999835 0.000552023 0)
(0.999968 0.00129349 0)
(1.00046 0.00162651 0)
(1.00085 0.00174544 0)
(1.00107 0.00199137 0)
(1.00155 0.00213004 0)
(1.00207 0.00202468 0)
(1.00219 0.00199848 0)
(1.00205 0.00221204 0)
(1.00208 0.00250723 0)
(1.00238 0.00265586 0)
(1.00251 0.00272359 0)
(1 5.00493e-05 0)
(1.00008 -9.74236e-05 0)
(0.999999 -0.000193226 0)
(1.0003 0.000256608 0)
(1.00069 0.000332936 0)
(1.00092 -0.000175745 0)
(1.0006 -0.000374342 0)
(1.00027 -9.29071e-06 0)
(1.00003 0.00058187 0)
(1.00013 0.00125358 0)
(1.00055 0.0015798 0)
(1.00093 0.00170237 0)
(1.00116 0.001919 0)
(1.00159 0.00207434 0)
(1.00207 0.00203048 0)
(1.00226 0.00202334 0)
(1.00219 0.00219691 0)
(1.00222 0.00246449 0)
(1.00247 0.00262174 0)
(1.0026 0.00269853 0)
(0.999995 4.25579e-05 0)
(1.00007 -6.50628e-05 0)
(1.00003 -0.000140704 0)
(1.00035 0.000193452 0)
(1.00067 0.000316604 0)
(1.00087 -3.84707e-05 0)
(1.00064 -0.000223674 0)
(1.0004 7.53648e-05 0)
(1.00022 0.000604632 0)
(1.00029 0.00121818 0)
(1.00064 0.00154471 0)
(1.00101 0.00166559 0)
(1.00125 0.00185519 0)
(1.00163 0.0020198 0)
(1.00209 0.00201798 0)
(1.00232 0.00203396 0)
(1.00233 0.00217729 0)
(1.00236 0.00241555 0)
(1.00257 0.00258041 0)
(1.00268 0.00265615 0)
(0.999986 4.04965e-05 0)
(1.00007 -3.90211e-05 0)
(1.00006 -8.33157e-05 0)
(1.0004 0.000151649 0)
(1.00067 0.000287785 0)
(1.00084 7.87848e-05 0)
(1.00067 -7.66632e-05 0)
(1.00052 0.000163721 0)
(1.00039 0.000622294 0)
(1.00045 0.00118042 0)
(1.00074 0.00151198 0)
(1.00108 0.00163961 0)
(1.00134 0.001798 0)
(1.00169 0.00196804 0)
(1.00212 0.00199823 0)
(1.00238 0.00203035 0)
(1.00245 0.00215656 0)
(1.0025 0.0023607 0)
(1.00267 0.00253286 0)
(1.00276 0.00260617 0)
(0.999979 4.244e-05 0)
(1.00007 -1.69066e-05 0)
(1.00008 -2.76008e-05 0)
(1.00044 0.000133433 0)
(1.00067 0.000254824 0)
(1.00082 0.000170565 0)
(1.0007 6.46197e-05 0)
(1.00063 0.000260133 0)
(1.00055 0.000644583 0)
(1.0006 0.00114037 0)
(1.00084 0.00147277 0)
(1.00115 0.00162141 0)
(1.00143 0.0017544 0)
(1.00175 0.00191418 0)
(1.00216 0.00197246 0)
(1.00244 0.00201486 0)
(1.00256 0.00213064 0)
(1.00263 0.00230314 0)
(1.00277 0.00247179 0)
(1.00284 0.00255292 0)
(0.999972 4.81652e-05 0)
(1.00008 9.07745e-07 0)
(1.0001 2.38072e-05 0)
(1.00047 0.000139072 0)
(1.00069 0.000228208 0)
(1.00082 0.00023643 0)
(1.00073 0.000196937 0)
(1.00072 0.00036032 0)
(1.00069 0.00067326 0)
(1.00075 0.00110405 0)
(1.00094 0.00142909 0)
(1.00122 0.0015989 0)
(1.0015 0.00172471 0)
(1.00182 0.0018665 0)
(1.00221 0.00193812 0)
(1.0025 0.00199063 0)
(1.00266 0.00209564 0)
(1.00275 0.00224491 0)
(1.00288 0.00239825 0)
(1.00292 0.0024926 0)
(0.999967 5.60322e-05 0)
(1.00009 1.59094e-05 0)
(1.00011 6.93928e-05 0)
(1.00049 0.000161105 0)
(1.00071 0.000216293 0)
(1.00083 0.00028258 0)
(1.00076 0.000308709 0)
(1.00079 0.000459186 0)
(1.00082 0.000707691 0)
(1.00089 0.00107643 0)
(1.00105 0.00138461 0)
(1.0013 0.00156916 0)
(1.00157 0.00169433 0)
(1.00188 0.00182876 0)
(1.00226 0.00190188 0)
(1.00256 0.00195943 0)
(1.00275 0.00205538 0)
(1.00286 0.00218456 0)
(1.00298 0.0023193 0)
(1.00299 0.00241915 0)
(0.999962 6.4595e-05 0)
(1.00009 3.15923e-05 0)
(1.00013 0.000104244 0)
(1.0005 0.000193434 0)
(1.00073 0.000221795 0)
(1.00086 0.000316425 0)
(1.0008 0.00039619 0)
(1.00086 0.000553083 0)
(1.00092 0.000752838 0)
(1.00101 0.00105828 0)
(1.00115 0.0013416 0)
(1.00137 0.00153747 0)
(1.00165 0.00165918 0)
(1.00194 0.00178943 0)
(1.00231 0.00186869 0)
(1.00261 0.00192188 0)
(1.00283 0.00201026 0)
(1.00296 0.00212107 0)
(1.00308 0.00223748 0)
(1.00307 0.00233377 0)
(0.999958 7.34358e-05 0)
(1.0001 4.87342e-05 0)
(1.00015 0.000129886 0)
(1.00051 0.000231444 0)
(1.00074 0.000244364 0)
(1.00089 0.000347522 0)
(1.00085 0.000462766 0)
(1.00092 0.000634263 0)
(1.00101 0.000806023 0)
(1.00112 0.00105189 0)
(1.00126 0.00130168 0)
(1.00145 0.00150284 0)
(1.00172 0.00162699 0)
(1.00201 0.00174336 0)
(1.00236 0.00183131 0)
(1.00266 0.00188201 0)
(1.00291 0.00195728 0)
(1.00305 0.00205561 0)
(1.00318 0.00215257 0)
(1.00315 0.00224004 0)
(0.999955 8.13671e-05 0)
(1.00011 6.86127e-05 0)
(1.00017 0.000150477 0)
(1.00053 0.00026845 0)
(1.00075 0.000280032 0)
(1.00093 0.000380089 0)
(1.0009 0.000514307 0)
(1.00099 0.000701019 0)
(1.00109 0.000857724 0)
(1.00122 0.00106022 0)
(1.00136 0.00126989 0)
(1.00153 0.00146108 0)
(1.00178 0.00159445 0)
(1.00207 0.00169962 0)
(1.00241 0.00178358 0)
(1.00271 0.00184089 0)
(1.00297 0.00190015 0)
(1.00313 0.00198683 0)
(1.00326 0.00206887 0)
(1.00322 0.00214077 0)
(0.999952 8.82671e-05 0)
(1.00012 9.10816e-05 0)
(1.00019 0.00016838 0)
(1.00054 0.000301363 0)
(1.00077 0.000325447 0)
(1.00096 0.000419563 0)
(1.00096 0.000557317 0)
(1.00105 0.00075488 0)
(1.00116 0.000903525 0)