/*--------------------------------*- C++ -*----------------------------------*\
| =========                 |                                                 |
| \\      /  F ield         | OpenFOAM: The Open Source CFD Toolbox           |
|  \\    /   O peration     | Version:  2506                                  |
|   \\  /    A nd           | Website:  www.openfoam.com                      |
|    \\/     M anipulation  |                                                 |
\*---------------------------------------------------------------------------*/
FoamFile
{
    version     2.0;
    format      ascii;
    arch        "LSB;label=32;scalar=64";
    class       volScalarField;
    location    "6.35";
    object      p;
}
// * * * * * * * * * * * * * * * * * * * * * * * * * * * * * * * * * * * * * //

dimensions      [0 2 -2 0 0 0 0];

internalField   nonuniform List<scalar> 
9600
(
-5.2797e-11
-0.00058528
-0.00204216
0.000550807
0.0022501
-0.00175674
-0.00026798
0.00312264
0.000622793
0.00489127
0.00632382
0.00712803
0.007276
0.00770837
0.00981555
0.0120773
0.0123826
0.0148433
0.0163811
0.0214245
-2.33277e-06
-0.000569282
-0.00203472
0.000543712
0.00223018
-0.00175117
-0.000255209
0.00313181
0.000629379
0.00488114
0.00632463
0.00711079
0.0072918
0.0077151
0.00982547
0.0120755
0.0123898
0.0147766
0.0164278
0.0209801
-2.09937e-06
-0.000554062
-0.00202792
0.000534257
0.00221087
-0.00171488
-0.000233683
0.00313087
0.000641533
0.00486576
0.00632401
0.00709421
0.00730564
0.00773601
0.00984017
0.012064
0.0123985
0.0147076
0.0164392
0.020496
-6.83628e-07
-0.000541824
-0.00201698
0.00054617
0.00219134
-0.00164641
-0.000192574
0.00312016
0.000668516
0.00485113
0.00632289
0.00708341
0.00731726
0.00776809
0.00985688
0.0120448
0.01241
0.0146187
0.0164132
0.0200334
-1.11239e-07
-0.000531308
-0.00199553
0.000576709
0.00216753
-0.0015462
-0.000130668
0.00310205
0.000714391
0.00483747
0.00632113
0.00707288
0.00732782
0.00780817
0.00987639
0.0120214
0.012419
0.0145203
0.01636
0.0195842
-1.87891e-06
-0.000521083
-0.00196187
0.000614049
0.00214005
-0.00142053
-4.85945e-05
0.00308155
0.000777418
0.00482415
0.00631836
0.00706025
0.0073407
0.00785295
0.00989935
0.0119958
0.0124259
0.0144176
0.0162804
0.0191445
-6.86584e-06
-0.000509533
-0.00191765
0.000652514
0.00211171
-0.00127732
4.88018e-05
0.00306109
0.00085186
0.00481144
0.0063154
0.00704522
0.00735678
0.00790002
0.00992603
0.01197
0.0124307
0.0143134
0.0161756
0.0187146
-1.48166e-05
-0.000495026
-0.00186532
0.000691317
0.00208349
-0.00112471
0.000156839
0.00304111
0.000931934
0.00479944
0.00631274
0.00702732
0.00737512
0.00794772
0.00995537
0.0119453
0.0124329
0.0142094
0.0160481
0.0182965
-2.44032e-05
-0.000476529
-0.00180609
0.000731153
0.00205421
-0.000969283
0.00027142
0.00302106
0.001014
0.00478759
0.00631032
0.00700623
0.00739428
0.00799409
0.00998519
0.0119225
0.0124312
0.0141067
0.0159026
0.0178915
-3.40057e-05
-0.000453949
-0.00173911
0.000773663
0.00202188
-0.000816436
0.000389828
0.00300101
0.00109722
0.00477555
0.00630848
0.00698254
0.0074127
0.00803671
0.0100129
0.0119014
0.0124235
0.014006
0.0157436
0.0174992
-4.24835e-05
-0.000427922
-0.00166239
0.000820576
0.00198476
-0.000670232
0.000510128
0.00298168
0.00118277
0.00476383
0.00630856
0.00695797
0.00742919
0.0080735
0.0100358
0.0118816
0.0124089
0.0139071
0.0155738
0.0171178
-4.93949e-05
-0.000399197
-0.00157453
0.000872453
0.00194224
-0.000533014
0.000630956
0.00296384
0.0012724
0.00475427
0.00630584
0.00693495
0.00744338
0.00810298
0.0100519
0.0118624
0.0123869
0.0138073
0.0153951
0.0167462
-5.47795e-05
-0.000368254
-0.00147581
0.000928493
0.00189502
-0.000405515
0.000751525
0.00294805
0.00136703
0.00474843
0.00631614
0.00691577
0.00745553
0.00812517
0.0100602
0.0118438
0.0123568
0.0137033
0.0152095
0.0163841
-5.88405e-05
-0.000335259
-0.00136794
0.000987132
0.00184468
-0.000287146
0.000871648
0.0029348
0.0014664
0.00474683
0.00633356
0.00690196
0.00746603
0.00814102
0.0100606
0.0118257
0.0123183
0.0136008
0.0150192
0.0160313
-6.17281e-05
-0.000300239
-0.00125322
0.00104701
0.00179313
-0.00017666
0.000991542
0.00292453
0.00156927
0.00474929
0.006358
0.00689405
0.00747509
0.00815202
0.0100533
0.0118077
0.0122721
0.0134787
0.0148254
0.0156869
-6.34921e-05
-0.000263139
-0.0011337
0.00110735
0.00174211
-7.2839e-05
0.00111155
0.00291776
0.0016741
0.00475531
0.00638858
0.00689161
0.00748236
0.00815985
0.0100391
0.0117888
0.01222
0.0133435
0.0146278
0.0153511
-6.4092e-05
-0.00022388
-0.00101069
0.00116777
0.00169307
2.53003e-05
0.00123193
0.00291505
0.00177963
0.00476442
0.00642409
0.00689371
0.00748725
0.00816616
0.0100178
0.0117681
0.0121641
0.0131949
0.0144255
0.0150251
-6.34058e-05
-0.000182442
-0.00088499
0.00122815
0.00164724
0.000118527
0.00135273
0.00291695
0.00188492
0.00477635
0.00646339
0.00689949
0.00748933
0.00817205
0.0099914
0.0117444
0.0121056
0.0130326
0.0142176
0.0147111
-6.12591e-05
-0.000138857
-0.00075706
0.00128854
0.00160568
0.00020748
0.00147379
0.002924
0.00198934
0.00479107
0.00650548
0.00690841
0.00748842
0.00817806
0.00996215
0.0117174
0.0120452
0.0128583
0.014002
0.0144105
-5.74368e-05
-9.32008e-05
-0.000627183
0.001349
0.00156921
0.000292764
0.00159486
0.00293668
0.00209245
0.00480858
0.00654966
0.00692012
0.00748429
0.00818427
0.0099301
0.0116823
0.011983
0.0126743
0.0137771
0.014124
-5.17001e-05
-4.5538e-05
-0.000495576
0.00140949
0.00153849
0.000374985
0.00171562
0.00295543
0.00219391
0.00482895
0.00659541
0.00693445
0.00747683
0.00819009
0.00989613
0.01164
0.0119188
0.0124835
0.0135421
0.0138507
-4.37854e-05
4.06269e-06
-0.00036243
0.00146991
0.00151414
0.000454732
0.00183559
0.00298065
0.00229347
0.00485215
0.00664247
0.00695124
0.00746607
0.00819485
0.00986082
0.0115898
0.0118518
0.0122889
0.0132974
0.0135891
-3.33995e-05
5.55008e-05
-0.000227899
0.00153025
0.00149662
0.000532574
0.00195423
0.00301263
0.00239108
0.00487805
0.00669065
0.00697027
0.00745216
0.00819792
0.00982455
0.0115315
0.0117807
0.0120924
0.013045
0.0133385
-2.02325e-05
0.00010865
-9.21135e-05
0.00159048
0.0014862
0.000609088
0.00207097
0.00305151
0.0024868
0.00490646
0.00673973
0.00699141
0.0074355
0.00819847
0.0097873
0.0114655
0.0117045
0.0118938
0.0127853
0.0131006
-3.94822e-06
0.000163406
4.47538e-05
0.00165058
0.00148305
0.000684858
0.00218531
0.00309733
0.00258069
0.0049371
0.00678972
0.00701462
0.00741653
0.00819582
0.00974873
0.0113923
0.0116235
0.0116939
0.0125168
0.0128746
1.58198e-05
0.000219727
0.00018251
0.00171054
0.00148721
0.000760473
0.00229678
0.00315003
0.0026729
0.00496963
0.00684084
0.00704168
0.00739545
0.00818969
0.00970824
0.011312
0.0115386
0.0114957
0.0122373
0.0126542
3.94114e-05
0.000277596
0.00032097
0.00177042
0.00149863
0.000836518
0.00240505
0.00320949
0.00276371
0.00500358
0.00689323
0.00706791
0.00737247
0.00818011
0.00966538
0.0112241
0.0114497
0.0113031
0.0119487
0.0124293
6.71066e-05
0.000337009
0.00045996
0.00183036
0.0015172
0.000913538
0.00250995
0.00327548
0.00285341
0.0050385
0.00694696
0.00709552
0.00734746
0.00816715
0.00962053
0.0111286
0.0113545
0.0111189
0.0116575
0.0121922
9.92208e-05
0.000397997
0.000599219
0.00189049
0.00154284
0.000992043
0.00261136
0.00334767
0.00294242
0.00507394
0.00700217
0.00712447
0.00731996
0.00815077
0.00957418
0.0110263
0.0112513
0.0109418
0.0113706
0.0119426
0.000136134
0.000460681
0.000738365
0.00195103
0.00157546
0.00107249
0.00270915
0.00342578
0.00303137
0.00510927
0.00705887
0.00715496
0.00728931
0.00813084
0.00952661
0.0109183
0.0111408
0.0107693
0.0110895
0.0116852
0.00017816
0.000525232
0.000877083
0.00201224
0.00161494
0.00115527
0.00280322
0.00350948
0.00312092
0.00514357
0.00711686
0.00718758
0.00725474
0.00810684
0.00947867
0.0108049
0.011024
0.0106023
0.0108137
0.0114222
0.000225549
0.000591809
0.00101508
0.00207432
0.00166125
0.00124081
0.00289347
0.00359844
0.00321175
0.00517582
0.00717552
0.00722325
0.0072157
0.00807771
0.00943224
0.0106869
0.0108993
0.0104432
0.0105459
0.011152
0.000278529
0.000660649
0.00115205
0.00213751
0.0017144
0.0013295
0.00297975
0.00369231
0.00330483
0.00520515
0.00723378
0.00726301
0.00717192
0.00804158
0.00938902
0.0105671
0.0107637
0.0102916
0.0102935
0.0108747
0.000337252
0.000731974
0.00128786
0.00220207
0.00177431
0.00142171
0.00306187
0.00379046
0.00340122
0.00523108
0.0072903
0.00730782
0.0071237
0.0079959
0.00934906
0.0104501
0.0106161
0.010142
0.0100634
0.0105975
0.000401924
0.000805894
0.00142241
0.00226828
0.0018408
0.00151788
0.00313975
0.00389201
0.00350208
0.00525347
0.00734318
0.00735848
0.00707243
0.00793837
0.00931061
0.0103404
0.0104595
0.00998847
0.00985687
0.0103323
0.000472796
0.00088246
0.00155574
0.00233633
0.00191348
0.00161879
0.00321331
0.00399574
0.0036087
0.00527269
0.00738993
0.00741512
0.00702058
0.00786726
0.0092712
0.0102407
0.0102986
0.00982691
0.00966922
0.0100897
0.000550049
0.00096168
0.00168812
0.00240656
0.00199179
0.00172534
0.00328267
0.00409977
0.00372238
0.00528997
0.00742772
0.00747689
0.00697136
0.00778145
0.00922758
0.0101528
0.010138
0.00965534
0.00949329
0.00987699
0.000633923
0.00104339
0.00181995
0.00247954
0.00207465
0.00183838
0.00334869
0.00420186
0.00384385
0.00530736
0.0074541
0.00754214
0.00692832
0.00768047
0.00917527
0.0100781
0.00998305
0.00947324
0.00932089
0.00969444
0.000724784
0.00112717
0.00195137
0.00255547
0.00216141
0.00195854
0.00341306
0.00429996
0.0039727
0.00532704
0.00746777
0.0076085
0.00689489
0.00756558
0.00910902
0.0100167
0.00984099
0.00928257
0.00914351
0.00953314
0.000823047
0.00121267
0.0020821
0.00263705
0.0022498
0.0020857
0.00347812
0.00439258
0.00410769
0.00535118
0.00746816
0.00767273
0.00687394
0.00744025
0.00902337
0.00996533
0.00971861
0.0090896
0.00895532
0.00938197
0.000929116
0.00129984
0.00221175
0.00272523
0.00233809
0.00221861
0.00354637
0.00447872
0.0042467
0.00538204
0.00745595
0.00773147
0.00686709
0.00730902
0.00891361
0.00991641
0.0096217
0.00890462
0.00875525
0.00923007
0.00104337
0.00138869
0.00233973
0.0028218
0.00242654
0.00235501
0.00362032
0.00455828
0.00438669
0.00542119
0.0074327
0.00778144
0.00687498
0.0071776
0.00877696
0.00986114
0.00955438
0.00873924
0.0085457
0.0090684
0.00116609
0.00147952
0.00246491
0.00292835
0.00251546
0.00249163
0.00370179
0.00463283
0.0045245
0.00546861
0.00740032
0.00781975
0.00689738
0.00705282
0.00861327
0.00978988
0.00951553
0.00860517
0.00833231
0.00889003
0.00129737
0.00157305
0.00258528
0.00304629
0.00260784
0.00262456
0.00379059
0.00470551
0.00465761
0.00552278
0.00736143
0.00784465
0.00693286
0.0069416
0.00842686
0.00969203
0.00949653
0.00851544
0.00812782
0.00868906
0.00143708
0.00167031
0.00269866
0.0031757
0.00270871
0.00275089
0.00388469
0.00477941
0.00478509
0.00558159
0.00731776
0.00785545
0.00697912
0.00684982
0.00822316
0.00955979
0.00948414
0.00847742
0.0079511
0.00846531
0.00158483
0.00177276
0.00280365
0.00331544
0.00282295
0.00286979
0.00398045
0.00485659
0.00490766
0.00564309
0.00727018
0.00785179
0.0070336
0.00678188
0.00801392
0.00939379
0.00946235
0.00848116
0.00782169
0.00823337
0.00174015
0.00188193
0.00289961
0.00346284
0.00295498
0.00298221
0.00407249
0.00493801
0.0050273
0.00570545
0.00721992
0.00783416
0.00709314
0.00674056
0.00780953
0.00920015
0.00941786
0.00850938
0.00775
0.00801916
0.00190226
0.00199945
0.00298682
0.00361292
0.00310841
0.00309164
0.00415515
0.00502296
0.00514704
0.00576735
0.00716792
0.00780424
0.00715358
0.00672679
0.00762012
0.00898585
0.00934551
0.00854442
0.00772634
0.00784585
0.00206991
0.00212722
0.00306672
0.00375917
0.00328368
0.00320412
0.00422475
0.00510787
0.00527065
0.00583082
0.00711498
0.00776299
0.00721015
0.00673819
0.00745476
0.00876043
0.00924319
0.00857501
0.00773578
0.00772418
0.00224204
0.00226675
0.0031415
0.0038959
0.00347895
0.00332756
0.00428051
0.00518571
0.00539947
0.00590125
0.00706388
0.00771083
0.00725806
0.00676934
0.00731828
0.00849646
0.00910904
0.00859535
0.00776701
0.00764819
0.00241757
0.00241881
0.00321467
0.00401881
0.0036901
0.00346926
0.00432495
0.00524885
0.00553094
0.00598366
0.00701979
0.00764968
0.00729312
0.00681352
0.00721655
0.00828081
0.00895166
0.00859833
0.00781243
0.00760605
0.00259521
0.00258349
0.00329096
0.0041252
0.00390889
0.00363423
0.00436508
0.00529146
0.00565825
0.00608037
0.00699015
0.00758358
0.0073125
0.00686343
0.0071469
0.00808517
0.00877998
0.00857767
0.00786533
0.00759046
0.00277409
0.00276031
0.00337589
0.00421412
0.0041243
0.00382385
0.00441179
0.00531238
0.0057709
0.00619005
0.00698245
0.0075203
0.00731667
0.0069115
0.00710318
0.00791424
0.00860354
0.00853316
0.0079178
0.00759882
0.00295365
0.00294789
0.00347496
0.00428633
0.00432492
0.00403555
0.00447672
0.00531558
0.0058579
0.00630621
0.00700137
0.00747007
0.00730903
0.00695148
0.0070787
0.00776931
0.00843182
0.00846978
0.00796382
0.00762992
0.00313382
0.00314398
0.00359102
0.00434557
0.00450253
0.00426296
0.00456936
0.00531066
0.00591234
0.00641645
0.00704725
0.00744385
0.00729732
0.00697987
0.00706541
0.00764976
0.00827049
0.00839356
0.00800075
0.00767931
0.00331567
0.00334604
0.00372433
0.00439789
0.00465202
0.00449423
0.0046949
0.00531372
0.00593536
0.00650473
0.00711362
0.00744941
0.00729312
0.00699814
0.0070558
0.00755359
0.00812464
0.00830967
0.00802649
0.00773823
0.00349999
0.00355216
0.0038743
0.00444967
0.00477176
0.00471547
0.0048513
0.00534219
0.00593607
0.00655891
0.00718546
0.00748714
0.00730893
0.00701341
0.00704524
0.0074752
0.00799705
0.00822339
0.00804069
0.00779981
0.00368676
0.0037607
0.00403866
0.00450816
0.00486268
0.00491678
0.00503208
0.00540505
0.00593275
0.00657804
0.00724287
0.00754946
0.00735328
0.00703694
0.00703445
0.00740764
0.00788641
0.00813995
0.00804605
0.007862
0.00387546
0.00396412
0.00421463
0.00458455
0.00493494
0.00509224
0.00522476
0.00550191
0.00594443
0.0065699
0.00727009
0.00762048
0.00742748
0.00707978
0.00702996
0.00734817
0.0077891
0.00806386
0.00804552
0.00792423
0.00406519
0.00416204
0.00439717
0.00468199
0.00500054
0.00523962
0.00541511
0.00562768
0.0059817
0.00655183
0.00726465
0.00768009
0.00752619
0.00715002
0.00703945
0.00729844
0.0077026
0.00798952
0.00803929
0.00798479
0.00425599
0.00435477
0.004581
0.00479986
0.00506947
0.00536017
0.00559268
0.00577389
0.00604729
0.00654305
0.00723494
0.00771294
0.00763485
0.00725062
0.00707061
0.00726205
0.0076276
0.00791926
0.00802712
0.00804154
0.00444794
0.00454291
0.00476065
0.00493446
0.00514979
0.00546005
0.00575118
0.00593105
0.00613975
0.00655417
0.00719672
0.00771704
0.00773365
0.00737712
0.00713261
0.00724387
0.00756548
0.00785626
0.00801061
0.00809121
0.00463971
0.00472634
0.00493479
0.00508179
0.00524561
0.00554744
0.0058879
0.00608905
0.00625463
0.00659049
0.0071653
0.00769879
0.00780842
0.00751523
0.00723031
0.00725205
0.00751787
0.00780245
0.00798982
0.00813109
0.00483015
0.00490715
0.00510257
0.00523451
0.00535678
0.00563102
0.00600405
0.00624036
0.00638533
0.00665296
0.00715167
0.00767099
0.00785829
0.00764637
0.00735645
0.00729625
0.00749043
0.00776028
0.00797105
0.00816232
0.00501798
0.00508468
0.00526467
0.00538771
0.00548097
0.00571787
0.00610311
0.00637959
0.00652409
0.0067389
0.00716282
0.00764664
0.00788903
0.00776231
0.00749647
0.00737861
0.00749212
0.00773208
0.00795879
0.00818701
0.00520177
0.00525918
0.00542091
0.00553819
0.00561565
0.00581244
0.00619038
0.00650368
0.00666404
0.00684362
0.00720048
0.00763624
0.0079093
0.00786333
0.00763867
0.00749179
0.00753189
0.00772352
0.00795499
0.00821176
0.00538031
0.00542928
0.00557234
0.0056828
0.00575488
0.00591642
0.00627324
0.00661317
0.00680046
0.00696272
0.007264
0.00764793
0.00792908
0.00795189
0.00777899
0.00762484
0.00760988
0.0077444
0.00796535
0.00824157
0.00555213
0.00559604
0.00571985
0.00582083
0.00589308
0.00602776
0.00635569
0.00670944
0.00692813
0.0070908
0.00735095
0.00768603
0.00796049
0.00803475
0.00791794
0.00777189
0.00772063
0.00780112
0.00799635
0.00828149
0.00571544
0.00575616
0.00586279
0.00595297
0.00602835
0.0061447
0.00644102
0.00679648
0.00704532
0.00722169
0.00745558
0.00774886
0.00801155
0.00812354
0.00806137
0.00793633
0.00786379
0.00789814
0.00805654
0.0083369
0.00586867
0.00590544
0.00599985
0.00607816
0.00615737
0.00626468
0.00653152
0.00687657
0.0071508
0.00735308
0.00757724
0.00783747
0.00808314
0.00822177
0.00820963
0.00811677
0.00804028
0.00804148
0.00815983
0.00842142
0.00601191
0.00605044
0.00613104
0.00619362
0.00627401
0.00638042
0.006627
0.00695577
0.00724224
0.00747412
0.00771056
0.00795894
0.00819437
0.00834988
0.00837662
0.00831472
0.00824707
0.00822874
0.00830727
0.00853239
0.00614153
0.00618295
0.00625605
0.00630302
0.00637919
0.00648487
0.00671894
0.00703691
0.00733248
0.00758115
0.00782836
0.00808761
0.00834236
0.0085371
0.00861226
0.00858474
0.00853246
0.00850685
0.00855357
0.00873659
0.00625257
0.00629844
0.00637294
0.00640956
0.00648249
0.00658459
0.00679539
0.00709616
0.00741151
0.00769013
0.0079429
0.00819309
0.00846027
0.00870089
0.0088464
0.00887871
0.00886285
0.00884899
0.00887273
0.00901403
0.00635074
0.00639811
0.00647409
0.00650279
0.00657699
0.00668914
0.00688557
0.00714765
0.00745149
0.00778908
0.00812942
0.00845961
0.00877155
0.00904688
0.00924348
0.00933717
0.00934801
0.00932337
0.00929687
0.00932573
0.00642198
0.00647205
0.00653252
0.00656005
0.00663707
0.00675847
0.00696348
0.00719903
0.00742943
0.00763583
0.00789912
0.00832231
0.00885754
0.00934179
0.00971222
0.00998309
0.0102234
0.0105068
0.010828
0.011127
0.00652787
0.00657247
0.00665865
0.00668095
0.00674124
0.00681731
0.0069656
0.00720459
0.00756286
0.00802502
0.00850281
0.00891486
0.00926439
0.00956659
0.00985191
0.0101294
0.0103755
0.0106299
0.0108798
0.0110548
0.00648083
0.00647695
0.00660322
0.0067274
0.00686676
0.00703904
0.00727919
0.00754638
0.00784509
0.00816439
0.00845514
0.00873625
0.00908054
0.00945625
0.00983664
0.0102509
0.0107195
0.0111912
0.0115847
0.0118236
0.00658758
0.00668017
0.00681473
0.00690428
0.00702482
0.00719471
0.00741861
0.00767246
0.00796433
0.0082796
0.00865936
0.00905677
0.00942263
0.00974726
0.00996384
0.0100737
0.0100533
0.00993414
0.00979248
0.0097048
0.00646182
0.00650283
0.00676225
0.00699472
0.00717834
0.00734639
0.00755257
0.00778116
0.00805143
0.00833033
0.00864348
0.00899308
0.00933955
0.00970956
0.0100953
0.0104902
0.0109119
0.0113163
0.0116585
0.0118726
0.00653682
0.00662994
0.0069173
0.00714901
0.00732631
0.00749706
0.0077031
0.00791365
0.00817545
0.0084536
0.00876532
0.0091448
0.00952329
0.0098911
0.01025
0.0105828
0.0108749
0.0111173
0.0113093
0.0114017
0.024283
0.0181525
0.0105607
0.00505016
0.00365361
0.00476734
0.00617915
0.00722573
0.00795264
0.00852311
0.00906304
0.00953485
0.00990879
0.010305
0.010744
0.0110935
0.0113515
0.0116538
0.012023
0.0123842
0.012695
0.0129641
0.0132607
0.0136619
0.0141047
0.0144666
0.0147682
0.0151012
0.0154969
0.0159144
0.0163206
0.0167543
0.0172511
0.0177594
0.0182478
0.0187506
0.0192645
0.0197434
0.0201957
0.0206513
0.0211027
0.0215628
0.0220611
0.0226109
0.0231803
0.0237363
0.0242755
0.0248362
0.0254255
0.0260071
0.0265461
0.0270899
0.0276815
0.028278
0.0288513
0.029459
0.0301172
0.0307704
0.031436
0.0321386
0.0328924
0.0336609
0.0343805
0.0349938
0.0356196
0.0363534
0.0371926
0.0380275
0.0388331
0.0396521
0.0404851
0.0413042
0.042134
0.0429987
0.0438777
0.0447863
0.0456895
0.0466269
0.047573
0.0485695
0.0495736
0.0505903
0.0516359
0.05271
0.0538251
0.0549443
0.0560754
0.0572266
0.0583914
0.0596306
0.0608464
0.0620791
0.06331
0.0645613
0.0658153
0.067077
0.0683257
0.0694793
0.0704673
0.0713421
0.0235395
0.0180047
0.0106457
0.00520263
0.00374659
0.00481135
0.00620568
0.00724362
0.00796556
0.00853331
0.00907189
0.00954273
0.00991548
0.0103107
0.0107493
0.0110983
0.0113556
0.0116574
0.0120263
0.0123872
0.0126977
0.0129666
0.0132628
0.0136637
0.0141065
0.0144683
0.0147697
0.0151024
0.015498
0.0159155
0.0163216
0.0167552
0.0172519
0.0177602
0.0182485
0.0187513
0.0192652
0.0197442
0.0201964
0.020652
0.0211034
0.0215634
0.0220617
0.0226115
0.0231809
0.0237369
0.024276
0.0248367
0.025426
0.0260076
0.0265466
0.0270903
0.0276819
0.0282785
0.0288517
0.0294594
0.0301176
0.0307708
0.0314363
0.0321389
0.0328926
0.0336612
0.0343809
0.0349941
0.0356198
0.0363536
0.0371928
0.0380277
0.0388333
0.0396523
0.0404853
0.0413044
0.0421342
0.0429989
0.0438779
0.0447865
0.0456897
0.0466271
0.0475731
0.0485696
0.0495737
0.0505904
0.051636
0.0527102
0.0538252
0.0549444
0.0560755
0.0572268
0.0583915
0.0596307
0.0608465
0.0620792
0.0633101
0.0645614
0.0658154
0.0670771
0.0683258
0.0694794
0.0704673
0.071342
0.0228355
0.0178386
0.0108031
0.00547429
0.0039041
0.00486876
0.00623399
0.00726509
0.00798216
0.00854574
0.00908164
0.009551
0.00992259
0.0103168
0.0107547
0.0111031
0.0113597
0.011661
0.0120296
0.0123902
0.0127004
0.0129689
0.0132647
0.0136654
0.0141082
0.0144699
0.014771
0.0151036
0.0154991
0.0159165
0.0163225
0.0167559
0.0172527
0.017761
0.0182492
0.018752
0.0192659
0.0197448
0.020197
0.0206525
0.0211039
0.0215639
0.0220622
0.022612
0.0231814
0.0237374
0.0242765
0.0248372
0.0254264
0.0260081
0.026547
0.0270907
0.0276823
0.0282789
0.028852
0.0294597
0.0301179
0.0307711
0.0314366
0.0321391
0.0328929
0.0336615
0.0343812
0.0349944
0.03562
0.0363538
0.037193
0.0380279
0.0388335
0.0396524
0.0404855
0.0413045
0.0421343
0.042999
0.043878
0.0447866
0.0456898
0.0466272
0.0475733
0.0485697
0.0495739
0.0505905
0.0516361
0.0527103
0.0538253
0.0549445
0.0560756
0.0572269
0.0583916
0.0596308
0.0608466
0.0620793
0.0633102
0.0645615
0.0658155
0.0670771
0.0683259
0.0694794
0.0704674
0.071342
0.0221623
0.0176682
0.0110049
0.00581843
0.0041211
0.00495166
0.00627679
0.00729869
0.00800817
0.00856433
0.00909476
0.00956127
0.0099316
0.0103246
0.0107612
0.0111087
0.011365
0.011666
0.0120338
0.0123937
0.0127036
0.0129721
0.0132677
0.013668
0.0141104
0.0144718
0.0147728
0.0151052
0.0155004
0.0159176
0.0163235
0.0167568
0.0172536
0.0177618
0.0182499
0.0187526
0.0192666
0.0197455
0.0201976
0.0206531
0.0211045
0.0215644
0.0220627
0.0226125
0.023182
0.0237379
0.024277
0.0248376
0.0254269
0.0260085
0.0265475
0.0270911
0.0276827
0.0282793
0.0288524
0.02946
0.0301183
0.0307714
0.0314368
0.0321394
0.0328932
0.0336618
0.0343816
0.0349947
0.0356201
0.0363539
0.0371932
0.0380282
0.0388337
0.0396526
0.0404857
0.0413047
0.0421344
0.0429992
0.0438782
0.0447868
0.04569
0.0466273
0.0475734
0.0485698
0.049574
0.0505907
0.0516362
0.0527104
0.0538254
0.0549446
0.0560757
0.057227
0.0583916
0.0596309
0.0608467
0.0620794
0.0633103
0.0645616
0.0658156
0.0670772
0.068326
0.0694796
0.0704675
0.0713419
0.0214979
0.0174857
0.0112206
0.00618649
0.00436396
0.00504826
0.00632765
0.00734123
0.00804321
0.00859013
0.00911256
0.0095747
0.00994365
0.0103351
0.0107692
0.0111156
0.0113722
0.0116732
0.0120399
0.0123982
0.0127077
0.0129767
0.0132724
0.0136719
0.0141134
0.0144745
0.0147755
0.0151077
0.0155024
0.0159192
0.0163249
0.0167582
0.0172549
0.0177629
0.0182508
0.0187535
0.0192675
0.0197463
0.0201982
0.0206536
0.0211049
0.0215649
0.0220632
0.022613
0.0231825
0.0237384
0.0242776
0.0248382
0.0254274
0.0260091
0.026548
0.0270915
0.0276831
0.0282797
0.0288528
0.0294603
0.0301186
0.0307717
0.0314372
0.0321397
0.0328934
0.0336621
0.034382
0.034995
0.0356203
0.0363541
0.0371934
0.0380284
0.0388339
0.0396528
0.0404859
0.0413049
0.0421346
0.0429993
0.0438783
0.0447869
0.0456901
0.0466275
0.0475735
0.04857
0.0495741
0.0505908
0.0516363
0.0527105
0.0538255
0.0549447
0.0560758
0.0572271
0.0583917
0.059631
0.0608468
0.0620795
0.0633104
0.0645617
0.0658157
0.0670773
0.0683261
0.0694798
0.0704678
0.0713418
0.0208427
0.0172869
0.0114306
0.0065581
0.00461967
0.00515151
0.0063798
0.00738665
0.00808315
0.0086208
0.00913402
0.00959098
0.00995858
0.0103481
0.0107787
0.0111233
0.011381
0.0116828
0.0120478
0.0124039
0.0127128
0.0129829
0.0132792
0.0136776
0.0141175
0.0144782
0.0147797
0.0151118
0.0155055
0.0159213
0.0163268
0.0167602
0.0172567
0.0177644
0.0182521
0.0187546
0.0192686
0.0197473
0.020199
0.0206542
0.0211053
0.0215653
0.0220637
0.0226135
0.0231829
0.023739
0.0242782
0.0248389
0.025428
0.0260096
0.0265485
0.0270921
0.0276836
0.0282801
0.0288532
0.0294607
0.030119
0.0307721
0.0314375
0.03214
0.0328938
0.0336625
0.0343825
0.0349954
0.0356204
0.0363542
0.0371937
0.0380288
0.0388342
0.0396531
0.0404861
0.0413051
0.0421348
0.0429995
0.0438785
0.0447871
0.0456903
0.0466276
0.0475736
0.0485701
0.0495743
0.0505909
0.0516365
0.0527106
0.0538257
0.0549448
0.0560759
0.0572272
0.0583918
0.0596311
0.060847
0.0620796
0.0633105
0.0645618
0.0658158
0.0670775
0.0683263
0.0694801
0.0704684
0.0713418
0.0202038
0.0170699
0.0116252
0.00692731
0.00488722
0.00526204
0.00643251
0.00743315
0.00812623
0.00865496
0.00915828
0.00960948
0.00997562
0.0103629
0.0107892
0.0111318
0.011391
0.011694
0.0120574
0.0124108
0.012719
0.0129907
0.013288
0.0136847
0.0141223
0.0144829
0.0147856
0.0151178
0.01551
0.0159244
0.0163295
0.0167629
0.017259
0.0177662
0.0182536
0.0187561
0.01927
0.0197486
0.0202001
0.0206549
0.0211058
0.0215658
0.0220643
0.0226139
0.0231832
0.0237394
0.0242789
0.0248397
0.0254287
0.0260102
0.0265492
0.0270928
0.0276842
0.0282806
0.0288536
0.0294612
0.0301194
0.0307724
0.0314379
0.0321404
0.0328942
0.033663
0.0343831
0.0349958
0.0356206
0.0363544
0.037194
0.0380291
0.0388345
0.0396534
0.0404864
0.0413054
0.042135
0.0429997
0.0438787
0.0447873
0.0456905
0.0466278
0.0475738
0.0485702
0.0495744
0.050591
0.0516366
0.0527107
0.0538258
0.054945
0.0560761
0.0572273
0.0583919
0.0596312
0.0608471
0.0620797
0.0633106
0.0645619
0.0658159
0.0670776
0.0683266
0.0694805
0.0704691
0.0713419
0.0195871
0.0168335
0.0117985
0.00729251
0.00516941
0.00538383
0.00648743
0.00748063
0.00817203
0.00869233
0.00918509
0.00962981
0.00999419
0.010379
0.0108005
0.0111409
0.0114018
0.0117062
0.012068
0.0124185
0.012726
0.0129998
0.0132985
0.013693
0.0141276
0.0144881
0.0147928
0.0151257
0.0155161
0.0159286
0.0163332
0.0167666
0.017262
0.0177683
0.0182553
0.0187577
0.0192717
0.0197504
0.0202016
0.0206559
0.0211065
0.0215666
0.0220651
0.0226144
0.0231833
0.0237396
0.0242796
0.0248405
0.0254293
0.0260108
0.0265501
0.0270937
0.0276849
0.0282812
0.0288542
0.0294617
0.0301198
0.0307727
0.0314382
0.0321408
0.0328946
0.0336635
0.0343837
0.0349963
0.0356209
0.0363547
0.0371944
0.0380295
0.0388349
0.0396538
0.0404868
0.0413057
0.0421353
0.043
0.0438789
0.0447876
0.0456907
0.0466279
0.0475739
0.0485704
0.0495746
0.0505912
0.0516367
0.0527108
0.0538259
0.0549451
0.0560762
0.0572274
0.058392
0.0596314
0.0608472
0.0620799
0.0633108
0.064562
0.0658161
0.0670778
0.0683269
0.0694812
0.0704702
0.071342
0.0189963
0.0165791
0.0119485
0.00765367
0.00546893
0.00552036
0.00654574
0.0075284
0.00821984
0.00873266
0.00921429
0.00965169
0.010014
0.0103962
0.0108128
0.0111506
0.0114132
0.0117191
0.0120793
0.0124268
0.0127337
0.0130099
0.01331
0.013702
0.0141332
0.0144936
0.0148008
0.0151347
0.0155235
0.015934
0.016338
0.0167711
0.0172657
0.0177709
0.0182573
0.0187595
0.0192734
0.0197523
0.0202036
0.0206574
0.0211075
0.0215677
0.0220663
0.0226151
0.0231833
0.0237396
0.0242802
0.0248414
0.0254299
0.0260113
0.026551
0.0270949
0.0276858
0.0282819
0.028855
0.0294625
0.0301203
0.030773
0.0314386
0.0321412
0.0328949
0.033664
0.0343844
0.0349969
0.0356212
0.036355
0.0371949
0.03803
0.0388353
0.0396542
0.0404872
0.0413061
0.0421357
0.0430003
0.0438793
0.0447879
0.045691
0.0466282
0.0475742
0.0485706
0.0495748
0.0505913
0.0516369
0.0527109
0.0538261
0.0549453
0.0560763
0.0572276
0.0583921
0.0596315
0.0608474
0.06208
0.063311
0.0645622
0.0658164
0.0670781
0.0683273
0.0694821
0.0704716
0.0713423
0.0184339
0.0163126
0.0120763
0.00800926
0.00578493
0.00567285
0.00660765
0.00757535
0.00826875
0.0087757
0.00924586
0.00967506
0.0100348
0.0104144
0.0108258
0.0111609
0.0114251
0.0117327
0.0120913
0.0124357
0.0127418
0.0130206
0.0133223
0.0137117
0.014139
0.0144991
0.014809
0.0151443
0.0155317
0.0159402
0.0163437
0.0167766
0.0172699
0.0177738
0.0182595
0.0187612
0.0192749
0.0197541
0.0202057
0.0206592
0.021109
0.0215693
0.022068
0.0226161
0.0231834
0.0237396
0.0242808
0.0248422
0.0254303
0.0260117
0.026552
0.0270962
0.0276868
0.0282827
0.0288561
0.0294636
0.030121
0.0307734
0.0314389
0.0321414
0.0328951
0.0336644
0.0343852
0.0349976
0.0356216
0.0363555
0.0371954
0.0380304
0.0388358
0.0396547
0.0404877
0.0413066
0.0421362
0.0430008
0.0438797
0.0447883
0.0456914
0.0466285
0.0475744
0.0485709
0.049575
0.0505915
0.0516371
0.0527111
0.0538262
0.0549454
0.0560765
0.0572277
0.0583923
0.0596316
0.0608476
0.0620802
0.0633111
0.0645623
0.0658167
0.0670784
0.0683278
0.0694834
0.0704735
0.0713427
0.0179024
0.0160419
0.0121826
0.0083538
0.00611247
0.00584115
0.00667391
0.00762111
0.00831804
0.00882121
0.00927987
0.00969995
0.0100566
0.0104334
0.0108394
0.0111715
0.0114374
0.0117468
0.0121039
0.012445
0.0127503
0.0130316
0.0133351
0.0137219
0.0141451
0.0145048
0.0148175
0.0151543
0.0155403
0.015947
0.0163501
0.0167827
0.0172747
0.0177771
0.018262
0.0187631
0.0192763
0.0197557
0.0202077
0.0206613
0.0211109
0.0215714
0.0220702
0.0226175
0.0231836
0.0237396
0.0242814
0.0248429
0.0254305
0.0260118
0.0265529
0.0270977
0.0276879
0.0282836
0.0288574
0.0294649
0.030122
0.0307741
0.0314394
0.0321416
0.032895
0.0336645
0.0343858
0.0349984
0.0356222
0.0363561
0.0371959
0.0380309
0.0388362
0.0396551
0.0404882
0.0413072
0.0421367
0.0430013
0.0438802
0.0447889
0.0456919
0.046629
0.0475748
0.0485712
0.0495753
0.0505918
0.0516373
0.0527113
0.0538264
0.0549456
0.0560766
0.0572279
0.0583924
0.0596318
0.0608478
0.0620804
0.0633113
0.0645625
0.065817
0.0670788
0.0683284
0.069485
0.070476
0.0713432
0.017404
0.0157735
0.0122664
0.00867979
0.00644556
0.00602543
0.00674634
0.00766572
0.00836669
0.00886859
0.00931632
0.00972649
0.0100794
0.0104529
0.0108534
0.0111824
0.01145
0.0117615
0.0121171
0.012455
0.0127592
0.013043
0.0133484
0.0137325
0.0141516
0.0145108
0.0148262
0.0151644
0.015549
0.0159541
0.0163569
0.0167893
0.0172799
0.0177807
0.0182647
0.018765
0.0192776
0.0197571
0.0202096
0.0206634
0.0211131
0.0215739
0.0220728
0.0226193
0.0231841
0.0237397
0.0242821
0.0248436
0.0254305
0.0260116
0.0265536
0.027099
0.0276891
0.0282846
0.0288588
0.0294665
0.0301232
0.0307751
0.0314402
0.0321419
0.0328947
0.0336641
0.034386
0.034999
0.035623
0.0363569
0.0371967