/*--------------------------------*- C++ -*----------------------------------*\
| =========                 |                                                 |
| \\      /  F ield         | OpenFOAM: The Open Source CFD Toolbox           |
|  \\    /   O peration     | Version:  2506                                  |
|   \\  /    A nd           | Website:  www.openfoam.com                      |
|    \\/     M anipulation  |                                                 |
\*---------------------------------------------------------------------------*/
FoamFile
{
    version     2.0;
    format      ascii;
    arch        "LSB;label=32;scalar=64";
    class       surfaceScalarField;
    location    "6.35";
    object      phi;
}
// * * * * * * * * * * * * * * * * * * * * * * * * * * * * * * * * * * * * * //

dimensions      [0 3 -1 0 0 0 0];

oriented        oriented;

internalField   nonuniform List<scalar> 
19000
(
1.15199e-06
-5.71337e-07
1.25705e-06
-6.74975e-07
1.26865e-06
-2.61412e-07
1.16623e-06
1.84161e-06
1.10731e-06
1.82369e-07
1.13088e-06
-1.61527e-06
1.20545e-06
-2.3481e-06
1.24653e-06
-1.04532e-06
1.24594e-06
-4.17466e-07
1.21539e-06
3.68477e-07
1.21662e-06
1.20061e-07
1.18181e-06
1.82032e-07
1.17739e-06
8.18681e-09
1.19146e-06
-1.0301e-07
1.20031e-06
-3.40061e-07
1.20588e-06
-1.5813e-07
1.20236e-06
-1.8791e-07
1.19366e-06
-1.28284e-08
1.18502e-06
-2.02201e-08
6.42754e-08
1.15431e-06
1.20817e-06
-5.55244e-07
1.31487e-06
-7.81678e-07
1.32436e-06
-2.70901e-07
1.27086e-06
1.89511e-06
1.18737e-06
2.65858e-07
1.1809e-06
-1.60879e-06
1.25946e-06
-2.42667e-06
1.3018e-06
-1.08767e-06
1.30636e-06
-4.2202e-07
1.287e-06
3.8784e-07
1.28268e-06
1.24372e-07
1.26194e-06
2.0278e-07
1.24509e-06
2.50312e-08
1.26875e-06
-1.26673e-07
1.26766e-06
-3.38965e-07
1.28367e-06
-1.74145e-07
1.26353e-06
-1.67769e-07
1.2725e-06
-2.17968e-08
1.23609e-06
1.61949e-08
5.84187e-08
1.24194e-06
1.2623e-06
-5.34758e-07
1.36873e-06
-8.88112e-07
1.38533e-06
-2.87503e-07
1.37722e-06
1.90322e-06
1.28129e-06
3.61787e-07
1.2452e-06
-1.5727e-06
1.30922e-06
-2.49069e-06
1.3565e-06
-1.13494e-06
1.3655e-06
-4.31019e-07
1.36583e-06
3.87503e-07
1.35552e-06
1.34681e-07
1.35012e-06
2.08183e-07
1.32271e-06
5.24373e-08
1.34538e-06
-1.49343e-07
1.33751e-06
-3.31095e-07
1.35318e-06
-1.89809e-07
1.33442e-06
-1.49008e-07
1.33531e-06
-2.2693e-08
1.31046e-06
4.10441e-08
7.41497e-08
1.29473e-06
1.31419e-06
-5.04847e-07
1.41667e-06
-9.90591e-07
1.44889e-06
-3.1972e-07
1.47774e-06
1.87438e-06
1.37779e-06
4.61732e-07
1.31506e-06
-1.50997e-06
1.3523e-06
-2.52793e-06
1.40653e-06
-1.18917e-06
1.42402e-06
-4.48507e-07
1.44203e-06
3.69495e-07
1.43354e-06
1.43166e-07
1.43427e-06
2.07457e-07
1.40606e-06
8.06465e-08
1.41583e-06
-1.5911e-07
1.40717e-06
-3.22439e-07
1.41614e-06
-1.98779e-07
1.40615e-06
-1.39021e-07
1.40152e-06
-1.80554e-08
1.38409e-06
5.8467e-08
9.4169e-08
1.36407e-06
1.36637e-06
-4.62864e-07
1.45882e-06
-1.08304e-06
1.51502e-06
-3.75922e-07
1.56983e-06
1.81957e-06
1.47494e-06
5.56617e-07
1.38963e-06
-1.42466e-06
1.39383e-06
-2.53213e-06
1.45213e-06
-1.24747e-06
1.48379e-06
-4.80164e-07
1.51578e-06
3.37501e-07
1.5161e-06
1.42842e-07
1.51694e-06
2.06619e-07
1.49155e-06
1.06038e-07
1.4867e-06
-1.54263e-07
1.47509e-06
-3.10828e-07
1.47913e-06
-2.02821e-07
1.47434e-06
-1.34225e-07
1.47118e-06
-1.48933e-08
1.45742e-06
7.22283e-08
1.13181e-07
1.4384e-06
1.42323e-06
-4.10416e-07
1.49953e-06
-1.15934e-06
1.58326e-06
-4.5966e-07
1.65451e-06
1.74832e-06
1.57083e-06
6.40295e-07
1.46836e-06
-1.32219e-06
1.44114e-06
-2.50491e-06
1.49821e-06
-1.30454e-06
1.54647e-06
-5.2843e-07
1.5912e-06
2.92779e-07
1.60212e-06
1.31914e-07
1.60232e-06
2.06421e-07
1.57789e-06
1.30473e-07
1.56126e-06
-1.37634e-07
1.54283e-06
-2.924e-07
1.54249e-06
-2.02481e-07
1.5399e-06
-1.31634e-07
1.53983e-06
-1.48289e-08
1.53085e-06
8.12101e-08
1.29868e-07
1.51417e-06
1.48911e-06
-3.53314e-07
1.54505e-06
-1.21527e-06
1.65212e-06
-5.6673e-07
1.73348e-06
1.66696e-06
1.66328e-06
7.10494e-07
1.5512e-06
-1.21011e-06
1.49937e-06
-2.45308e-06
1.55013e-06
-1.3553e-06
1.61234e-06
-5.90639e-07
1.66971e-06
2.35408e-07
1.68952e-06
1.12107e-07
1.6904e-06
2.05538e-07
1.66478e-06
1.5609e-07
1.63906e-06
-1.11906e-07
1.61233e-06
-2.65671e-07
1.60628e-06
-1.96432e-07
1.60394e-06
-1.29296e-07
1.60623e-06
-1.71198e-08
1.60275e-06
8.46872e-08
1.42505e-07
1.59012e-06
1.56615e-06
-2.99334e-07
1.6e-06
-1.24912e-06
1.71903e-06
-6.8576e-07
1.80706e-06
1.57893e-06
1.75029e-06
7.6726e-07
1.63719e-06
-1.097e-06
1.56917e-06
-2.38506e-06
1.6104e-06
-1.39653e-06
1.68069e-06
-6.6093e-07
1.74923e-06
1.66862e-07
1.77539e-06
8.59476e-08
1.77826e-06
2.02675e-07
1.75122e-06
1.83123e-07
1.71854e-06
-7.92234e-08
1.68428e-06
-2.3141e-07
1.67154e-06
-1.8369e-07
1.66764e-06
-1.25397e-07
1.67078e-06
-2.02577e-08
1.67228e-06
8.31848e-08
1.49849e-07
1.66493e-06
1.65315e-06
-2.54912e-07
1.66556e-06
-1.26153e-06
1.7819e-06
-8.02105e-07
1.87426e-06
1.48657e-06
1.83098e-06
8.10542e-07
1.72497e-06
-9.90994e-07
1.64847e-06
-2.30856e-06
1.67869e-06
-1.42675e-06
1.75034e-06
-7.32571e-07
1.82637e-06
9.08273e-08
1.85654e-06
5.57754e-08
1.8623e-06
1.96918e-07
1.83532e-06
2.10107e-07
1.79814e-06
-4.20487e-08
1.75855e-06
-1.91821e-07
1.73941e-06
-1.64548e-07
1.73266e-06
-1.18644e-07
1.73486e-06
-2.24651e-08
1.73984e-06
7.82132e-08
1.51754e-07
1.73793e-06
1.7467e-06
-2.22895e-07
1.74044e-06
-1.25526e-06
1.84111e-06
-9.02774e-07
1.9348e-06
1.39288e-06
1.90612e-06
8.39221e-07
1.81372e-06
-8.98598e-07
1.73476e-06
-2.22959e-06
1.75357e-06
-1.44556e-06
1.82009e-06
-7.99087e-07
1.89838e-06
1.25327e-08
1.9304e-06
2.37528e-08
1.9397e-06
1.87623e-07
1.91518e-06
2.3463e-07
1.87665e-06
-3.52168e-09
1.83485e-06
-1.5002e-07
1.81082e-06
-1.40518e-07
1.80083e-06
-1.08658e-07
1.80065e-06
-2.22863e-08
1.80701e-06
7.18559e-08
1.49157e-07
1.80961e-06
1.84338e-06
-2.02527e-07
1.82295e-06
-1.23483e-06
1.90012e-06
-9.79943e-07
1.9911e-06
1.3019e-06
1.97814e-06
8.52178e-07
1.90344e-06
-8.23892e-07
1.82616e-06
-2.15232e-06
1.83382e-06
-1.45322e-06
1.88965e-06
-8.54916e-07
1.96454e-06
-6.2358e-08
1.99634e-06
-8.04298e-09
2.00945e-06
1.74511e-07
1.98995e-06
2.54131e-07
1.95358e-06
3.28417e-08
1.91309e-06
-1.09523e-07
1.88652e-06
-1.1395e-07
1.87383e-06
-9.59676e-08
1.87055e-06
-1.9012e-08
1.8762e-06
6.62099e-08
1.43746e-07
1.88161e-06
1.94132e-06
-1.91008e-07
1.91201e-06
-1.20552e-06
1.964e-06
-1.03193e-06
2.04835e-06
1.21755e-06
2.05063e-06
8.49893e-07
1.99467e-06
-7.67933e-07
1.92149e-06
-2.07913e-06
1.91914e-06
-1.45087e-06
1.96058e-06
-8.96361e-07
2.02714e-06
-1.28916e-07
2.05672e-06
-3.7629e-08
2.07326e-06
1.57975e-07
2.06062e-06
2.66775e-07
2.02955e-06
6.39092e-08
1.99356e-06
-7.3532e-08
1.96708e-06
-8.74765e-08
1.9529e-06
-8.17797e-08
1.94668e-06
-1.27946e-08
1.95002e-06
6.28683e-08
1.37446e-07
1.95632e-06
2.04036e-06
-1.85184e-07
2.00702e-06
-1.17218e-06
2.03694e-06
-1.06185e-06
2.11231e-06
1.14218e-06
2.12726e-06
8.34943e-07
2.08828e-06
-7.28949e-07
2.02009e-06
-2.01094e-06
2.00983e-06
-1.44061e-06
2.03592e-06
-9.22449e-07
2.09102e-06
-1.84024e-07
2.11668e-06
-6.32834e-08
2.13542e-06
1.39237e-07
2.13008e-06
2.72111e-07
2.10623e-06
8.77599e-08
2.07691e-06
-4.42136e-08
2.05281e-06
-6.33696e-08
2.03862e-06
-6.75955e-08
2.03039e-06
-4.56289e-09
2.03069e-06
6.2566e-08
1.31872e-07
2.03627e-06
2.14137e-06
-1.82555e-07
2.10749e-06
-1.13829e-06
2.12069e-06
-1.07505e-06
2.18683e-06
1.07604e-06
2.21064e-06
8.11126e-07
2.18516e-06
-7.03465e-07
2.12179e-06
-1.94757e-06
2.10617e-06
-1.42499e-06
2.11857e-06
-9.34848e-07
2.16147e-06
-2.26929e-07
2.18205e-06
-8.38617e-08
2.20127e-06
1.20014e-07
2.2023e-06
2.71079e-07
2.18598e-06
1.04084e-07
2.16409e-06
-2.23194e-08
2.14373e-06
-4.30105e-08
2.13088e-06
-5.47504e-08
2.12204e-06
4.27753e-09
2.11954e-06
6.50721e-08
1.27882e-07
2.12353e-06
2.24547e-06
-1.81536e-07
2.21302e-06
-1.10584e-06
2.21469e-06
-1.07672e-06
2.27283e-06
1.0179e-06
2.30186e-06
7.82096e-07
2.28613e-06
-6.87733e-07
2.22677e-06
-1.88822e-06
2.20804e-06
-1.40626e-06
2.20994e-06
-9.36745e-07
2.2419e-06
-2.58889e-07
2.25712e-06
-9.90852e-08
2.27527e-06
1.01871e-07
2.28099e-06
2.65355e-07
2.27116e-06
1.13913e-07
2.25614e-06
-7.30286e-09
2.23989e-06
-2.6762e-08
2.22912e-06
-4.39742e-08
2.2211e-06
1.22981e-08
2.21674e-06
6.94292e-08
1.25462e-07
2.21916e-06
2.3536e-06
-1.81264e-07
2.32336e-06
-1.0756e-06
2.31728e-06
-1.07063e-06
2.36924e-06
9.65931e-07
2.40086e-06
7.5048e-07
2.39181e-06
-6.78687e-07
2.33551e-06
-1.83191e-06
2.31513e-06
-1.38588e-06
2.30987e-06
-9.31484e-07
2.33318e-06
-2.82198e-07
2.34362e-06
-1.09526e-07
2.35979e-06
8.57045e-08
2.36861e-06
2.56532e-07
2.3636e-06
1.18919e-07
2.35413e-06
2.16861e-09
2.34159e-06
-1.42165e-08
2.33286e-06
-3.52462e-08
2.32665e-06
1.85119e-08
2.32163e-06
7.44448e-08
1.24039e-07
2.32305e-06
2.46642e-06
-1.81292e-07
2.43847e-06
-1.04764e-06
2.42695e-06
-1.05912e-06
2.4745e-06
9.18385e-07
2.50721e-06
7.17769e-07
2.5027e-06
-6.74177e-07
2.44856e-06
-1.77777e-06
2.42724e-06
-1.36456e-06
2.41749e-06
-9.21734e-07
2.43451e-06
-2.99223e-07
2.44127e-06
-1.16284e-07
2.4553e-06
7.16767e-08
2.46616e-06
2.45673e-07
2.46438e-06
1.20695e-07
2.45889e-06
7.65793e-09
2.44931e-06
-4.63589e-09
2.44209e-06
-2.80238e-08
2.43797e-06
2.26332e-08
2.43328e-06
7.9135e-08
1.22986e-07
2.43433e-06
2.58437e-06
-1.81364e-07
2.55845e-06
-1.02173e-06
2.54287e-06
-1.04354e-06
2.58749e-06
8.7377e-07
2.62059e-06
6.84671e-07
2.61917e-06
-6.72758e-07
2.56649e-06
-1.72509e-06
2.54439e-06
-1.34246e-06
2.53198e-06
-9.09321e-07
2.54464e-06
-3.1188e-07
2.54893e-06
-1.2058e-07
2.56114e-06
5.947e-08
2.57348e-06
2.33328e-07
2.5738e-06
1.20376e-07
2.5709e-06
1.0565e-08
2.56358e-06
2.6786e-09
2.55718e-06
-2.16169e-08
2.55482e-06
2.49835e-08
2.55104e-06
8.29212e-08
1.21969e-07
2.55206e-06
2.70777e-06
-1.81305e-07
2.68355e-06
-9.97507e-07
2.66481e-06
-1.0248e-06
2.70773e-06
8.30846e-07
2.7409e-06
6.51501e-07
2.74156e-06
-6.73412e-07
2.68981e-06
-1.67334e-06
2.66682e-06
-1.31947e-06
2.65291e-06
-8.95412e-07
2.66257e-06
-3.21542e-07
2.66548e-06
-1.23486e-07
2.67636e-06
4.85911e-08
2.68992e-06
2.19769e-07
2.69167e-06
1.1862e-07
2.69029e-06
1.19519e-08
2.68472e-06
8.24574e-09
2.6786e-06
-1.54989e-08
2.6774e-06
2.61885e-08
2.67473e-06
8.55898e-08
1.20972e-07
2.67572e-06
2.83694e-06
-1.80979e-07
2.81409e-06
-9.74651e-07
2.79285e-06
-1.00357e-06
2.8351e-06
7.88598e-07
2.86818e-06
6.18416e-07
2.87014e-06
-6.75368e-07
2.81897e-06
-1.62217e-06
2.79486e-06
-1.29537e-06
2.78018e-06
-8.80734e-07
2.78778e-06
-3.29138e-07
2.7901e-06
-1.2581e-07
2.80013e-06
3.85579e-08
2.8147e-06
2.05204e-07
2.81757e-06
1.15748e-07
2.81698e-06
1.25386e-08
2.81279e-06
1.24356e-08
2.80672e-06
-9.42312e-09
2.80602e-06
2.68882e-08
2.80446e-06
8.71533e-08
1.20133e-07
2.80529e-06
2.9722e-06
-1.80281e-07
2.95044e-06
-9.52889e-07
2.92723e-06
-9.80357e-07
2.96959e-06
7.4623e-07
3.0025e-06
5.85508e-07
3.00515e-06
-6.78013e-07
2.95435e-06
-1.57138e-06
2.92889e-06
-1.2699e-06
2.91389e-06
-8.65736e-07
2.92005e-06
-3.35301e-07
2.92234e-06
-1.28094e-07
2.93193e-06
2.89604e-08
2.94729e-06
1.89849e-07
2.95111e-06
1.11929e-07
2.95088e-06
1.2766e-08
2.94776e-06
1.55498e-08
2.9417e-06
-3.354e-09
2.94103e-06
2.75575e-08
2.94043e-06
8.77481e-08
1.19564e-07
2.941e-06
3.11385e-06
-1.79122e-07
3.09299e-06
-9.32037e-07
3.06821e-06
-9.55569e-07
3.11125e-06
7.03188e-07
3.14392e-06
5.5284e-07
3.14676e-06
-6.80856e-07
3.09631e-06
-1.52093e-06
3.06933e-06
-1.24291e-06
3.05427e-06
-8.50679e-07
3.05944e-06
-3.40466e-07
3.062e-06
-1.30654e-07
3.07146e-06
1.94942e-08
3.08737e-06
1.73942e-07
3.09203e-06
1.07271e-07
3.09191e-06
1.28877e-08
3.0896e-06
1.78592e-08
3.0836e-06
2.64715e-09
3.08268e-06
2.84692e-08
3.08286e-06
8.75713e-08
1.19277e-07
3.08315e-06
3.26221e-06
-1.77418e-07
3.24216e-06
-9.11992e-07
3.2161e-06
-9.29507e-07
3.26013e-06
6.59161e-07
3.29252e-06
5.20447e-07
3.29515e-06
-6.83483e-07
3.24516e-06
-1.47094e-06
3.2166e-06
-1.21436e-06
3.20163e-06
-8.35706e-07
3.20609e-06
-3.44929e-07
3.20907e-06
-1.33632e-07
3.2186e-06
9.96685e-09
3.23482e-06
1.57724e-07
3.24022e-06
1.01868e-07
3.24007e-06
1.30364e-08
3.23834e-06
1.9592e-08
3.23249e-06
8.4975e-09
3.23121e-06
2.97469e-08
3.23198e-06
8.68013e-08
1.19192e-07
3.23207e-06
3.4176e-06
-1.75087e-07
3.39832e-06
-8.92713e-07
3.37124e-06
-9.02426e-07
3.41633e-06
6.14076e-07
3.44844e-06
4.88328e-07
3.45051e-06
-6.85546e-07
3.40118e-06
-1.42161e-06
3.37113e-06
-1.18431e-06
3.3563e-06
-8.20872e-07
3.36026e-06
-3.48889e-07
3.36365e-06
-1.37026e-07
3.37333e-06
2.90945e-10
3.38962e-06
1.41426e-07
3.39566e-06
9.58295e-08
3.39545e-06
1.32505e-08
3.39413e-06
2.09122e-08
3.38851e-06
1.41168e-08
3.38684e-06
3.14185e-08
3.38806e-06
8.55792e-08
1.19141e-07
3.38811e-06
3.58038e-06
-1.72059e-07
3.56184e-06
-8.74165e-07
3.53398e-06
-8.74573e-07
3.58001e-06
5.68053e-07
3.61191e-06
4.56426e-07
3.61311e-06
-6.86749e-07
3.56465e-06
-1.37315e-06
3.53328e-06
-1.15295e-06
3.51858e-06
-8.06167e-07
3.52217e-06
-3.52478e-07
3.52589e-06
-1.40747e-07
3.53572e-06
-9.53967e-09
3.5519e-06
1.25244e-07
3.55844e-06
8.92906e-08
3.55821e-06
1.34773e-08
3.55719e-06
2.19356e-08
3.55189e-06
1.94203e-08
3.54985e-06
3.34567e-08
3.55142e-06
8.40094e-08
1.18881e-07
3.55168e-06
3.75094e-06
-1.68296e-07
3.73306e-06
-8.56279e-07
3.70469e-06
-8.46206e-07
3.75139e-06
5.21353e-07
3.78319e-06
4.24623e-07
3.7833e-06
-6.86857e-07
3.73588e-06
-1.32573e-06
3.70343e-06
-1.1205e-06
3.68879e-06
-7.91525e-07
3.69209e-06
-3.55784e-07
3.69602e-06
-1.44674e-07
3.70595e-06
-1.94693e-08
3.72189e-06
1.09307e-07
3.72877e-06
8.24072e-08
3.72861e-06
1.36404e-08
3.72784e-06
2.27053e-08
3.72294e-06
2.43247e-08
3.72059e-06
3.58061e-08
3.72243e-06
8.21658e-08
1.18189e-07
3.72312e-06
3.9297e-06
-1.63804e-07
3.91233e-06
-8.38911e-07
3.88371e-06
-8.17591e-07
3.93076e-06
4.74309e-07
3.96263e-06
3.92747e-07
3.96149e-06
-6.85716e-07
3.91521e-06
-1.27945e-06
3.88192e-06
-1.08721e-06
3.86724e-06
-7.76845e-07
3.87033e-06
-3.58874e-07
3.87434e-06
-1.4869e-07
3.88429e-06
-2.94138e-08
3.89992e-06
9.3673e-08
3.90698e-06
7.53489e-08
3.90695e-06
1.36714e-08
3.90644e-06
2.32132e-08
3.902e-06
2.87657e-08
3.89946e-06
3.83499e-08
3.90142e-06
8.0205e-08
1.16843e-07
3.90276e-06
4.1171e-06
-1.58651e-07
4.10004e-06
-8.2185e-07
4.07142e-06
-7.88981e-07
4.11846e-06
4.27271e-07
4.1506e-06
3.60613e-07
4.14814e-06
-6.83259e-07
4.10302e-06
-1.23433e-06
4.06911e-06
-1.0533e-06
4.05428e-06
-7.6201e-07
4.05722e-06
-3.61811e-07
4.06121e-06
-1.5268e-07
4.07108e-06
-3.92864e-08
4.0864e-06
7.83506e-08
4.09347e-06
6.82838e-08
4.09358e-06
1.35526e-08
4.09338e-06
2.34209e-08
4.08948e-06
3.2667e-08
4.08684e-06
4.09852e-08
4.08878e-06
7.82686e-08
1.1475e-07
4.09087e-06
4.31359e-06
-1.52943e-07
4.2966e-06
-8.04851e-07
4.2682e-06
-7.60588e-07
4.3149e-06
3.80572e-07
4.34746e-06
3.28057e-07
4.3437e-06
-6.79498e-07
4.29973e-06
-1.19036e-06
4.26541e-06
-1.01897e-06
4.2503e-06
-7.46902e-07
4.25315e-06
-3.64665e-07
4.257e-06
-1.56525e-07
4.26672e-06
-4.90147e-08
4.28174e-06
6.33345e-08
4.28867e-06
6.13502e-08
4.28888e-06
1.33439e-08
4.28902e-06
2.32787e-08
4.28573e-06
3.59669e-08
4.28308e-06
4.36274e-08
4.28493e-06
7.64174e-08
1.11971e-07
4.28771e-06
4.51964e-06
-1.46805e-07
4.50248e-06
-7.87695e-07
4.47446e-06
-7.32571e-07
4.52054e-06
3.34498e-07
4.55361e-06
2.94986e-07
4.54862e-06
-6.74515e-07
4.5058e-06
-1.14754e-06
4.47121e-06
-9.84381e-07
4.45574e-06
-7.31432e-07
4.45856e-06
-3.6749e-07
4.46217e-06
-1.60136e-07
4.47164e-06
-5.84803e-08
4.48638e-06
4.85882e-08
4.49308e-06
5.46548e-08
4.49325e-06
1.31695e-08
4.49378e-06
2.27552e-08
4.49111e-06
3.86365e-08
4.48857e-06
4.61692e-08
4.49031e-06
7.46754e-08
1.08632e-07
4.49365e-06
4.73565e-06
-1.40344e-07
4.71819e-06
-7.70229e-07
4.69065e-06
-7.05032e-07
4.73587e-06
2.89276e-07
4.76946e-06
2.61395e-07
4.76337e-06
-6.68425e-07
4.72168e-06
-1.10585e-06
4.68696e-06
-9.4966e-07
4.67107e-06
-7.15544e-07
4.67389e-06
-3.70311e-07
4.67723e-06
-1.63474e-07
4.68626e-06
-6.75095e-08
4.70076e-06
3.4086e-08
4.70721e-06
4.8207e-08
4.7072e-06
1.31805e-08
4.708e-06
2.19516e-08
4.70612e-06
4.05224e-08
4.70373e-06
4.85631e-08
4.70534e-06
7.30594e-08
1.04819e-07
4.70915e-06
4.96209e-06
-1.33635e-07
4.94425e-06
-7.52388e-07
4.91724e-06
-6.78025e-07
4.96145e-06
2.45068e-07
4.99547e-06
2.27372e-07
4.98839e-06
-6.61347e-07
4.94788e-06
-1.06533e-06
4.91314e-06
-9.14923e-07
4.8968e-06
-6.99199e-07
4.89963e-06
-3.73144e-07
4.90271e-06
-1.66556e-07
4.91108e-06
-7.58824e-08
4.92533e-06
1.98355e-08
4.93167e-06
4.18695e-08
4.9313e-06
1.35559e-08
4.93231e-06
2.09368e-08
4.93131e-06
4.15215e-08
4.92913e-06
5.07469e-08
4.93049e-06
7.16979e-08
1.00577e-07
4.93473e-06
5.1994e-06
-1.26716e-07
5.1812e-06
-7.3419e-07
5.15472e-06
-6.51548e-07
5.19783e-06
2.01964e-07
5.23212e-06
1.93076e-07
5.22417e-06
-6.53393e-07
5.18488e-06
-1.02605e-06
5.15025e-06
-8.80288e-07
5.1334e-06
-6.82347e-07
5.13624e-06
-3.75991e-07
5.13916e-06
-1.69475e-07
5.14664e-06
-8.3362e-08
5.16059e-06
5.88824e-09
5.16699e-06
3.54708e-08
5.16625e-06
1.42929e-08
5.16727e-06
1.99229e-08
5.16721e-06
4.1576e-08
5.16535e-06
5.26041e-08
5.16633e-06
7.0718e-08
9.6039e-08
5.17087e-06
5.44807e-06
-1.19595e-07
5.4296e-06
-7.15719e-07
5.40359e-06
-6.25538e-07
5.44558e-06
1.59971e-07
5.47994e-06
1.58715e-07
5.4712e-06
-6.44649e-07
5.43322e-06
-9.88075e-07
5.39882e-06
-8.45884e-07
5.3814e-06
-6.64921e-07
5.38422e-06
-3.78817e-07
5.38715e-06
-1.72401e-07
5.39353e-06
-8.97462e-08
5.40707e-06
-7.64559e-09
5.41372e-06
2.88205e-08
5.41273e-06
1.52785e-08
5.41354e-06
1.9113e-08
5.41429e-06
4.08308e-08
5.41298e-06
5.39118e-08
5.41354e-06
7.01549e-08
9.15141e-08
5.41807e-06
5.70863e-06
-1.12268e-07
5.69002e-06
-6.97106e-07
5.66436e-06
-5.99877e-07
5.70529e-06
1.19037e-07
5.73948e-06
1.24522e-07
5.72997e-06
-6.35131e-07
5.69342e-06
-9.51531e-07
5.65941e-06
-8.11874e-07
5.64133e-06
-6.46835e-07
5.64406e-06
-3.81555e-07
5.6472e-06
-1.75536e-07
5.65238e-06
-9.49315e-08
5.66531e-06
-2.05684e-08
5.67239e-06
2.17389e-08
5.67135e-06
1.63164e-08
5.67178e-06
1.86818e-08
5.67306e-06
3.95506e-08
5.67251e-06
5.4463e-08
5.67284e-06
6.98273e-08
8.74513e-08
5.6769e-06
5.98165e-06
-1.04727e-07
5.96306e-06
-6.78515e-07
5.9376e-06
-5.74412e-07
5.97755e-06
7.90794e-08
6.01137e-06
9.07056e-08
6.00098e-06
-6.24747e-07
5.966e-06
-9.16549e-07
5.93262e-06
-7.78488e-07
5.91377e-06
-6.27989e-07
5.91629e-06
-3.84074e-07
5.91985e-06
-1.79092e-07
5.92384e-06
-9.89293e-08
5.93588e-06
-3.26059e-08
5.94359e-06
1.4027e-08
5.94267e-06
1.72352e-08
5.94259e-06
1.87649e-08
5.94417e-06
3.79696e-08
5.94445e-06
5.41849e-08
5.94478e-06
6.94971e-08
8.40314e-08
5.9482e-06
6.26774e-06
-9.6977e-08
6.24934e-06
-6.60117e-07
6.22395e-06
-5.4902e-07
6.26294e-06
4.00915e-08
6.29627e-06
5.73671e-08
6.28483e-06
-6.13301e-07
6.25149e-06
-8.83215e-07
6.21904e-06
-7.46039e-07
6.19937e-06
-6.08313e-07
6.20146e-06
-3.86166e-07
6.20559e-06
-1.83217e-07
6.20858e-06
-1.01923e-07
6.21941e-06
-4.34376e-08
6.22786e-06
5.58356e-09
6.22731e-06
1.77797e-08
6.2266e-06
1.9472e-08
6.22828e-06
3.6291e-08
6.22934e-06
5.31291e-08
6.22996e-06
6.88713e-08
8.12498e-08
6.23275e-06
6.56753e-06
-8.90372e-08
6.54948e-06
-6.42068e-07
6.52419e-06
-5.23724e-07
6.56195e-06
2.33074e-09
6.59489e-06
2.44233e-08
6.58219e-06
-6.00603e-07
6.55043e-06
-8.51455e-07
6.5193e-06
-7.14907e-07
6.4988e-06
-5.87813e-07
6.50019e-06
-3.8756e-07
6.50496e-06
-1.8798e-07
6.50721e-06
-1.04177e-07
6.5166e-06
-5.28229e-08
6.52568e-06
-3.50191e-09
6.52583e-06
1.76306e-08
6.52453e-06
2.0768e-08
6.52602e-06
3.48002e-08
6.52779e-06
5.13627e-08
6.52891e-06
6.7748e-08
7.89086e-08
6.53126e-06
6.88171e-06
-8.09573e-08
6.86412e-06
-6.24477e-07
6.83913e-06
-4.98734e-07
6.87509e-06
-3.36294e-08
6.90788e-06
-8.3623e-09
6.89388e-06
-5.86607e-07
6.8634e-06
-8.20974e-07
6.83399e-06
-6.85501e-07
6.81279e-06
-5.6661e-07
6.81317e-06
-3.87938e-07
6.8185e-06
-1.93318e-07
6.82034e-06
-1.06014e-07
6.82814e-06
-6.06246e-08
6.83763e-06
-1.29841e-08
6.83878e-06
1.64752e-08
6.83703e-06
2.2514e-08
6.83809e-06
3.3749e-08
6.84042e-06
4.90273e-08
6.8422e-06
6.59718e-08
7.67562e-08
6.84435e-06
7.211e-06
-7.28188e-08
7.1939e-06
-6.0738e-07
7.16957e-06
-4.74404e-07
7.20291e-06
-6.69679e-08
7.23586e-06
-4.13147e-08
7.22073e-06
-5.71476e-07
7.19105e-06
-7.91296e-07
7.16368e-06
-6.58132e-07
7.14208e-06
-5.45002e-07
7.14112e-06
-3.86982e-07
7.14685e-06
-1.99045e-07
7.14857e-06
-1.07734e-07
7.15477e-06
-6.68315e-08
7.16429e-06
-2.25033e-08
7.1667e-06
1.40735e-08
7.16478e-06
2.4432e-08
7.16518e-06
3.33487e-08
7.16786e-06
4.6346e-08
7.17041e-06
6.34161e-08
7.45817e-08
7.17259e-06
7.55614e-06
-6.47363e-08
7.53944e-06
-5.90675e-07
7.51626e-06
-4.51226e-07
7.54609e-06
-9.68001e-08
7.57944e-06
-7.46607e-08
7.56362e-06
-5.55657e-07
7.53416e-06
-7.61839e-07
7.50897e-06
-6.32942e-07
7.48735e-06
-5.23382e-07
7.48483e-06
-3.84456e-07
7.49068e-06
-2.04898e-07
7.49251e-06
-1.09561e-07
7.49716e-06
-7.14821e-08
7.50637e-06
-3.1712e-08
7.51012e-06
1.03179e-08
7.50837e-06
2.61822e-08
7.50809e-06
3.36359e-08
7.51077e-06
4.36607e-08
7.51417e-06
6.00189e-08
7.21724e-08
7.51658e-06
7.91793e-06
-5.6859e-08
7.90132e-06
-5.74058e-07
7.87995e-06
-4.29861e-07
7.90549e-06
-1.22338e-07
7.93916e-06
-1.08336e-07
7.92336e-06
-5.39856e-07
7.89357e-06
-7.32043e-07
7.87047e-06
-6.09842e-07
7.84929e-06
-5.02208e-07
7.84511e-06
-3.80269e-07
7.85074e-06
-2.10534e-07
7.85276e-06
-1.11582e-07
7.85603e-06
-7.47448e-08
7.86453e-06
-4.02183e-08
7.86963e-06
5.21967e-09
7.86851e-06
2.73049e-08
7.86751e-06
3.46285e-08
7.86994e-06
4.12353e-08
7.87402e-06
5.59371e-08
6.92344e-08
7.87696e-06
8.29719e-06
-4.9366e-08
8.28021e-06
-5.57076e-07
8.26134e-06
-4.10998e-07
8.28216e-06
-1.43157e-07
8.31558e-06
-1.41753e-07
8.30073e-06
-5.25009e-07
8.27022e-06
-7.01535e-07
8.24882e-06
-5.88435e-07
8.22854e-06
-4.81932e-07
8.22278e-06
-3.74502e-07
8.22777e-06
-2.15524e-07
8.22997e-06
-1.1379e-07
8.23206e-06
-7.68368e-08
8.23951e-06
-4.76672e-08
8.24574e-06
-1.00659e-09
8.24569e-06
2.73571e-08
8.24434e-06
3.59787e-08
8.24616e-06
3.94159e-08
8.25064e-06
5.14495e-08
6.54983e-08
8.25438e-06
8.69475e-06
-4.24526e-08
8.67697e-06
-5.39294e-07
8.66113e-06
-3.95158e-07
8.67724e-06
-1.59274e-07
8.7093e-06
-1.73814e-07
8.69636e-06
-5.12059e-07
8.66514e-06
-6.70324e-07
8.64477e-06
-5.68064e-07
8.62572e-06
-4.62881e-07
8.61851e-06
-3.67293e-07
8.62247e-06
-2.1948e-07
8.62478e-06
-1.161e-07
8.62591e-06
-7.79671e-08
8.63207e-06
-5.38324e-08
8.63907e-06
-8.00234e-09
8.64046e-06
2.59611e-08
8.63931e-06
3.71369e-08
8.64038e-06
3.83422e-08
8.64479e-06
4.70413e-08
6.0848e-08
8.64944e-06
9.11149e-06
-3.63241e-08
9.09253e-06
-5.20333e-07
9.08001e-06
-3.82637e-07
9.09195e-06
-1.71218e-07
9.12113e-06
-2.02994e-07
9.11081e-06
-5.01742e-07
9.07934e-06
-6.38846e-07
9.05912e-06
-5.4785e-07
9.04134e-06
-4.451e-07
9.03293e-06
-3.58875e-07
9.03554e-06
-2.2209e-07
9.03788e-06
-1.18447e-07
9.03835e-06
-7.84385e-08
9.04314e-06
-5.86243e-08
9.05046e-06
-1.53167e-08
9.05352e-06
2.28997e-08
9.05309e-06
3.75723e-08
9.05361e-06
3.78173e-08
9.05743e-06
4.32254e-08
5.54987e-08
9.06278e-06
9.54831e-06
-3.11745e-08
9.52789e-06
-4.99916e-07
9.51876e-06
-3.73499e-07
9.52752e-06
-1.79987e-07
9.55215e-06
-2.27619e-07
9.54459e-06
-4.94183e-07
9.51361e-06
-6.07865e-07
9.49279e-06
-5.27033e-07
9.47595e-06
-4.28257e-07
9.46676e-06
-3.49683e-07
9.46798e-06
-2.23317e-07
9.47045e-06
-1.20911e-07
9.47057e-06
-7.85626e-08
9.47385e-06
-6.19011e-08
9.4811e-06
-2.25719e-08
9.48575e-06
1.82534e-08
9.4864e-06
3.69228e-08
9.48682e-06
3.73995e-08
9.48976e-06
4.0282e-08
5.00228e-08
9.49524e-06
1.00061e-05
-2.71769e-08
9.98411e-06
-4.77893e-07
9.97819e-06
-3.67572e-07
9.98487e-06
-1.86672e-07
1.00036e-05
-2.46368e-07
9.99819e-06
-4.88751e-07
9.96855e-06
-5.78229e-07
9.94686e-06
-5.05341e-07
9.93065e-06
-4.12044e-07
9.92101e-06
-3.4005e-07
9.9211e-06
-2.23401e-07
9.92374e-06
-1.2355e-07
9.92384e-06
-7.86661e-08
9.9257e-06
-6.37597e-08
9.93232e-06
-2.91941e-08
9.93827e-06
1.23072e-08
9.94014e-06
3.50493e-08
9.9408e-06
3.67429e-08
9.94305e-06
3.80287e-08
4.50934e-08
9.94798e-06
1.04859e-05
-2.44554e-08
1.04623e-05
-4.54267e-07
1.04591e-05
-3.64404e-07
1.04648e-05
-1.9238e-07
1.04772e-05
-2.58713e-07
1.04725e-05
-4.84026e-07
1.04452e-05
-5.51e-07
1.04228e-05
-4.82926e-07
1.04068e-05
-3.9603e-07
1.0397e-05
-3.30243e-07
1.03961e-05
-2.22528e-07
1.03989e-05
-1.26318e-07
1.03992e-05
-7.89667e-08
1.04e-05
-6.45514e-08
1.04055e-05
-3.47297e-08
1.04122e-05
5.57218e-09
1.04153e-05
3.19643e-08
1.04164e-05
3.56827e-08
1.04184e-05
3.60285e-08
4.10606e-08
1.04224e-05
1.09886e-05
-2.30604e-08
1.09636e-05
-4.29205e-07
1.09621e-05
-3.62984e-07
1.09683e-05
-1.98526e-07
1.09747e-05
-2.65134e-07
1.09692e-05
-4.78507e-07
1.09449e-05
-5.26753e-07
1.09223e-05
-4.60251e-07
1.09057e-05
-3.79498e-07
1.08958e-05
-3.20295e-07
1.08943e-05
-2.21012e-07
1.08971e-05
-1.29131e-07
1.08977e-05
-7.96013e-08
1.08977e-05
-6.45799e-08
1.0902e-05
-3.89374e-08
1.09089e-05
-1.35555e-09
1.09131e-05
2.77453e-08
1.09146e-05
3.41582e-08
1.09167e-05
3.39997e-08
3.7735e-08
1.092e-05
1.15153e-05
-2.2951e-08
1.14891e-05
-4.03023e-07
1.14884e-05
-3.62271e-07
1.14961e-05
-2.06235e-07
1.14975e-05
-2.66527e-07
1.14896e-05
-4.70695e-07
1.14687e-05
-5.0585e-07
1.14467e-05
-4.38161e-07
1.14291e-05
-3.61959e-07
1.14186e-05
-3.09776e-07
1.14166e-05
-2.18999e-07
1.14194e-05
-1.31967e-07
1.14205e-05
-8.06317e-08
1.14201e-05
-6.42133e-08
1.14229e-05
-4.17966e-08
1.14294e-05
-7.85507e-09
1.14346e-05
2.25778e-08
1.14367e-05
3.20586e-08
1.14387e-05
3.19697e-08
3.46495e-08
1.14418e-05
1.20669e-05
-2.39908e-08
1.20401e-05
-3.7623e-07
1.2039e-05
-3.61236e-07
1.2049e-05
-2.16214e-07
1.20466e-05
-2.64111e-07
1.20354e-05
-4.59528e-07
1.20173e-05
-4.87712e-07
1.1997e-05
-4.17905e-07
1.19787e-05
-3.43587e-07
1.19669e-05
-2.98018e-07
1.19641e-05
-2.16195e-07
1.19669e-05
-1.34761e-07
1.19684e-05
-8.21516e-08
1.19679e-05
-6.37354e-08
1.19697e-05
-4.35913e-08
1.19753e-05
-1.34513e-08
1.1981e-05
1.68675e-08
1.19839e-05
2.92021e-08
1.19859e-05
2.99948e-08
3.16114e-08
1.19889e-05
1.26445e-05
-2.59388e-08
1.26179e-05
-3.49563e-07
1.26155e-05
-3.58856e-07
1.2628e-05
-2.2877e-07
1.26232e-05
-2.59283e-07
1.26083e-05
-4.4461e-07
1.25914e-05
-4.70772e-07
1.25742e-05
-4.0071e-07
1.25557e-05
-3.25105e-07
1.25423e-05
-2.84664e-07
1.25382e-05
-2.12053e-07
1.25407e-05
-1.37238e-07
1.25427e-05
-8.42274e-08
1.25424e-05
-6.3357e-08
1.25434e-05
-4.46239e-08
1.25479e-05
-1.79812e-08
1.25537e-05
1.10689e-08
1.25573e-05
2.5598e-08
1.25594e-05
2.79574e-08
2.8709e-08
1.25623e-05
1.32495e-05
-2.84746e-08
1.32238e-05
-3.23869e-07
1.32192e-05
-3.54267e-07
1.3234e-05
-2.43588e-07
1.32283e-05
-2.5358e-07
1.32097e-05
-4.26013e-07
1.31923e-05
-4.53361e-07
1.31784e-05
-3.86842e-07
1.31611e-05
-3.07772e-07
1.31463e-05
-2.69897e-07
1.31403e-05
-2.0606e-07
1.3142e-05
-1.38921e-07
1.31445e-05
-8.67148e-08
1.31446e-05
-6.3468e-08
1.3145e-05
-4.50403e-08
1.31486e-05
-2.1597e-08
1.31541e-05
5.60841e-09
1.31583e-05
2.14556e-08
1.31606e-05
2.5635e-08
2.60584e-08
1.31632e-05
1.38829e-05
-3.12306e-08
1.38592e-05
-3.00136e-07
1.38517e-05
-3.46817e-07
1.38676e-05
-2.59454e-07
1.38627e-05
-2.4866e-07
1.3841e-05
-4.04287e-07
1.38217e-05
-4.34107e-07
1.38104e-05
-3.75491e-07
1.37955e-05
-2.92923e-07
1.37802e-05
-2.54547e-07
1.37721e-05
-1.98026e-07
1.37725e-05
-1.3933e-07
1.3775e-05
-8.92269e-08
1.37758e-05
-6.4185e-08
1.37759e-05
-4.51957e-08
1.37787e-05
-2.4376e-08
1.37836e-05
6.72888e-10
1.3788e-05
1.70734e-08
1.37907e-05
2.29469e-08
2.35799e-08
1.37932e-05
1.45463e-05
-3.38334e-08
1.45251e-05
-2.78922e-07
1.45147e-05
-3.36413e-07
1.45301e-05
-2.74946e-07
1.4527e-05
-2.45483e-07
1.45031e-05
-3.80457e-07
1.44813e-05
-4.12291e-07
1.4471e-05
-3.65156e-07
1.44595e-05
-2.81431e-07
1.44448e-05
-2.39865e-07
1.44351e-05
-1.88302e-07
1.44337e-05
-1.37902e-07
1.44358e-05
-9.14154e-08
1.4437e-05
-6.53792e-08
1.44373e-05
-4.54882e-08
1.44394e-05
-2.64694e-08
1.44437e-05
-3.61722e-09
1.44481e-05
1.26987e-08
1.4451e-05
1.99971e-08
2.11224e-08
1.44535e-05
1.5241e-05
-3.59538e-08
1.52229e-05
-2.60818e-07
1.52097e-05
-3.23239e-07
1.52227e-05
-2.87931e-07
1.52214e-05
-2.44132e-07
1.5197e-05
-3.56143e-07
1.51728e-05
-3.88077e-07
1.5162e-05
-3.54296e-07
1.51538e-05
-2.73213e-07
1.51413e-05
-2.27411e-07
1.51306e-05
-1.77584e-07
1.51272e-05
-1.34479e-07
1.51284e-05
-9.27084e-08
1.51299e-05
-6.68487e-08
1.51305e-05
-4.60701e-08
1.51322e-05
-2.81275e-08
1.51358e-05
-7.27539e-09
1.514e-05
8.47895e-09
1.51431e-05
1.69043e-08
1.86293e-08
1.51456e-05
1.59687e-05
-3.72854e-08
1.59548e-05
-2.46933e-07
1.59376e-05
-3.0604e-07
1.59459e-05
-2.96262e-07
1.59467e-05
-2.44894e-07
1.59239e-05
-3.33413e-07
1.58983e-05
-3.62417e-07
1.58856e-05
-3.41604e-07
1.58795e-05
-2.67131e-07
1.58703e-05
-2.18213e-07
1.58599e-05
-1.67157e-07
1.58547e-05
-1.29275e-07
1.58545e-05
-9.25079e-08
1.58559e-05
-6.82879e-08
1.58568e-05
-4.69816e-08
1.58583e-05
-2.95967e-08
1.58614e-05
-1.03816e-08
1.58654e-05
4.5252e-09
1.58685e-05
1.37136e-08
1.61338e-08
1.5871e-05
1.67308e-05
-3.74921e-08
1.67144e-05
-2.30511e-07
1.66962e-05
-2.87819e-07
1.67015e-05
-3.01553e-07
1.67052e-05
-2.48661e-07
1.6686e-05
-3.14171e-07
1.66599e-05
-3.36293e-07
1.66448e-05
-3.26529e-07
1.66387e-05
-2.61053e-07
1.66327e-05
-2.12237e-07
1.66241e-05
-1.58495e-07
1.66177e-05
-1.22862e-07
1.66158e-05
-9.06559e-08
1.66167e-05
-6.92257e-08
1.66178e-05
-4.80468e-08
1.66193e-05
-3.11e-08
1.6622e-05
-1.3093e-08
1.66256e-05
9.33993e-10
1.66288e-05
1.04789e-08
1.36424e-08
1.66313e-05
1.75296e-05
-3.67385e-08
1.75177e-05
-2.18582e-07
1.74969e-05
-2.66996e-07
1.74954e-05
-3.00089e-07
1.74996e-05
-2.52825e-07
1.74844e-05
-2.99064e-07
1.74592e-05
-3.11013e-07
1.7442e-05
-3.09375e-07
1.74341e-05
-2.53174e-07
1.743e-05
-2.08081e-07
1.74239e-05
-1.52462e-07
1.74175e-05
-1.16429e-07
1.74142e-05
-8.73103e-08
1.74141e-05
-6.91464e-08
1.74151e-05
-4.90964e-08
1.74167e-05
-3.26753e-08
1.74192e-05
-1.55434e-08
1.74224e-05
-2.30114e-09
1.74256e-05
7.27837e-09
1.11707e-08
1.74281e-05
1.83668e-05
-3.51425e-08
1.83553e-05
-2.07133e-07
1.83357e-05
-2.47391e-07
1.83296e-05
-2.93951e-07
1.8332e-05
-2.55249e-07
1.83206e-05
-2.87633e-07
1.82972e-05
-2.87688e-07
1.82787e-05
-2.90876e-07
1.82687e-05
-2.4317e-07
1.82644e-05
-2.03776e-07
1.82607e-05
-1.48752e-07
1.82555e-05