/*--------------------------------*- C++ -*----------------------------------*\
| =========                 |                                                 |
| \\      /  F ield         | OpenFOAM: The Open Source CFD Toolbox           |
|  \\    /   O peration     | Version:  2506                                  |
|   \\  /    A nd           | Website:  www.openfoam.com                      |
|    \\/     M anipulation  |                                                 |
\*---------------------------------------------------------------------------*/
FoamFile
{
    version     2.0;
    format      ascii;
    arch        "LSB;label=32;scalar=64";
    class       volVectorField;
    location    "6.35";
    object      U;
}
// * * * * * * * * * * * * * * * * * * * * * * * * * * * * * * * * * * * * * //

dimensions      [0 1 -1 0 0 0 0];

internalField   nonuniform List<vector> 
9600
(
(0.601338 -0.00590451 0)
(1.3413 -0.00649077 0)
(0.833787 -0.00297119 0)
(1.30988 0.0230833 0)
(0.714359 0.00181193 0)
(1.16119 -0.0246472 0)
(0.788534 -0.0382228 0)
(1.25817 -0.0183927 0)
(0.88818 -0.00824752 0)
(1.23476 0.0075163 0)
(0.858679 0.00284586 0)
(1.21123 0.0039855 0)
(0.82406 6.48604e-05 0)
(1.17926 -0.00276974 0)
(0.870553 -0.011081 0)
(1.17548 -0.00536022 0)
(0.893013 -0.00761281 0)
(1.16018 -0.000691537 0)
(0.883824 -0.00157224 0)
(1.14126 0.00263381 0)
(0.628456 -0.00565646 0)
(1.31729 -0.00793087 0)
(0.850676 -0.00321752 0)
(1.29187 0.0239145 0)
(0.806771 0.00316198 0)
(1.11974 -0.0249438 0)
(0.819384 -0.04019 0)
(1.22469 -0.0194296 0)
(0.911687 -0.00836116 0)
(1.21299 0.00811236 0)
(0.901309 0.00278385 0)
(1.18326 0.00497119 0)
(0.888385 0.000426178 0)
(1.13668 -0.00341309 0)
(0.94333 -0.011234 0)
(1.12239 -0.0059349 0)
(0.976678 -0.00691867 0)
(1.08638 -0.000585698 0)
(0.991715 5.45613e-05 0)
(1.02883 0.00211566 0)
(0.675353 -0.00548997 0)
(1.26897 -0.00917272 0)
(0.881687 -0.00331204 0)
(1.25959 0.024756 0)
(0.904608 0.004429 0)
(1.0858 -0.0244477 0)
(0.861962 -0.0411882 0)
(1.17008 -0.0201727 0)
(0.950566 -0.0084364 0)
(1.17246 0.00847145 0)
(0.964287 0.00303429 0)
(1.14273 0.00538586 0)
(0.967128 0.00103553 0)
(1.09163 -0.00426389 0)
(1.00852 -0.0109968 0)
(1.0763 -0.0066138 0)
(1.03131 -0.00602801 0)
(1.05149 -0.00109665 0)
(1.02757 0.00140187 0)
(1.01819 0.00311374 0)
(0.73682 -0.00524974 0)
(1.20064 -0.0103122 0)
(0.919564 -0.00355973 0)
(1.22072 0.0247539 0)
(0.989726 0.00583187 0)
(1.05834 -0.0237346 0)
(0.901627 -0.0420877 0)
(1.10588 -0.021147 0)
(0.988432 -0.00864397 0)
(1.12819 0.00828145 0)
(1.02035 0.00330261 0)
(1.11021 0.00534438 0)
(1.02483 0.00185731 0)
(1.06756 -0.00478629 0)
(1.03934 -0.0107445 0)
(1.05602 -0.0070537 0)
(1.04766 -0.00556319 0)
(1.04735 -0.000883167 0)
(1.03563 0.00228099 0)
(1.0259 0.00423824 0)
(0.80468 -0.00487755 0)
(1.12399 -0.0114053 0)
(0.955192 -0.00407555 0)
(1.18349 0.0241363 0)
(1.05298 0.00722679 0)
(1.04329 -0.0225498 0)
(0.931075 -0.0423154 0)
(1.04736 -0.0221856 0)
(1.01277 -0.00909075 0)
(1.09466 0.00770206 0)
(1.0575 0.0034026 0)
(1.0953 0.00528289 0)
(1.05759 0.00261106 0)
(1.06253 -0.00485259 0)
(1.04831 -0.0104681 0)
(1.04846 -0.00725768 0)
(1.04846 -0.00531097 0)
(1.04745 -0.00066829 0)
(1.04003 0.00300979 0)
(1.03111 0.00527482 0)
(0.869252 -0.00438662 0)
(1.05386 -0.0123624 0)
(0.981908 -0.00490943 0)
(1.15331 0.0232534 0)
(1.09301 0.00852152 0)
(1.03997 -0.0210848 0)
(0.949843 -0.0420774 0)
(1.00499 -0.023245 0)
(1.02145 -0.00987798 0)
(1.07612 0.00686608 0)
(1.07816 0.00327037 0)
(1.09404 0.00527569 0)
(1.07537 0.0032906 0)
(1.06587 -0.00450486 0)
(1.04984 -0.00998287 0)
(1.04316 -0.0073236 0)
(1.0441 -0.00516551 0)
(1.04457 -0.000600986 0)
(1.04134 0.00354216 0)
(1.03445 0.00621964 0)
(0.922668 -0.00382016 0)
(1.00231 -0.0131035 0)
(0.996824 -0.00606326 0)
(1.13097 0.0222238 0)
(1.1131 0.00960604 0)
(1.0435 -0.019393 0)
(0.962053 -0.0413746 0)
(0.980474 -0.0242196 0)
(1.01966 -0.0109969 0)
(1.06792 0.00576473 0)
(1.08852 0.00290707 0)
(1.09802 0.00526881 0)
(1.08591 0.00398531 0)
(1.0705 -0.00382792 0)
(1.04964 -0.0092258 0)
(1.03769 -0.00721268 0)
(1.03718 -0.00507508 0)
(1.03854 -0.000670997 0)
(1.03867 0.00381824 0)
(1.03511 0.0069932 0)
(0.961189 -0.003249 0)
(0.974041 -0.0135885 0)
(1.00041 -0.00745114 0)
(1.11327 0.0210846 0)
(1.11806 0.0105013 0)
(1.04828 -0.0176383 0)
(0.971484 -0.0403694 0)
(0.969489 -0.0250598 0)
(1.0135 -0.0123578 0)
(1.06337 0.00438653 0)
(1.09213 0.00235597 0)
(1.10081 0.00522297 0)
(1.09169 0.00473188 0)
(1.07332 -0.00291156 0)
(1.04858 -0.0081988 0)
(1.03216 -0.00686593 0)
(1.02905 -0.00498017 0)
(1.03017 -0.000813094 0)
(1.03253 0.0038495 0)
(1.03234 0.00750479 0)
(0.985349 -0.0027471 0)
(0.965755 -0.0138157 0)
(0.995639 -0.00890043 0)
(1.09574 0.0198769 0)
(1.11215 0.01122 0)
(1.05078 -0.0159432 0)
(0.979783 -0.0391696 0)
(0.966576 -0.0257221 0)
(1.0065 -0.013819 0)
(1.05782 0.00278872 0)
(1.0897 0.00167651 0)
(1.09886 0.0051137 0)
(1.09246 0.00549921 0)
(1.073 -0.0018273 0)
(1.04623 -0.00695319 0)
(1.02677 -0.00627868 0)
(1.02086 -0.00479341 0)
(1.02066 -0.000924304 0)
(1.02395 0.0036861 0)
(1.02638 0.00771095 0)
(0.998404 -0.00236238 0)
(0.969621 -0.0138126 0)
(0.986913 -0.01022 0)
(1.07569 0.0186515 0)
(1.09887 0.0117152 0)
(1.05004 -0.0144189 0)
(0.987123 -0.0378808 0)
(0.967758 -0.0261865 0)
(0.999781 -0.0152371 0)
(1.04908 0.00107827 0)
(1.08106 0.000924565 0)
(1.09072 0.00491819 0)
(1.08753 0.00622655 0)
(1.06894 -0.0006576 0)
(1.04222 -0.00558519 0)
(1.02157 -0.00548267 0)
(1.01343 -0.00446783 0)
(1.01138 -0.000958271 0)
(1.01436 0.00339809 0)
(1.01825 0.00764509 0)
(1.00436 -0.00210487 0)
(0.977913 -0.0136303 0)
(0.978484 -0.011278 0)
(1.05357 0.0174469 0)
(1.08157 0.011992 0)
(1.04669 -0.0131392 0)
(0.993212 -0.0365789 0)
(0.970714 -0.0264267 0)
(0.993548 -0.0164688 0)
(1.03693 -0.000607457 0)
(1.06677 0.000161727 0)
(1.07666 0.00462697 0)
(1.07697 0.00684261 0)
(1.06121 0.000493872 0)
(1.0365 -0.0042122 0)
(1.01656 -0.00454456 0)
(1.00726 -0.00401407 0)
(1.00342 -0.000885556 0)
(1.00522 0.00309269 0)
(1.00938 0.00740284 0)
(1.00652 -0.00195396 0)
(0.985767 -0.0133332 0)
(0.973008 -0.012027 0)
(1.03216 0.0163065 0)
(1.06358 0.0120471 0)
(1.04191 -0.0121462 0)
(0.997793 -0.0353194 0)
(0.9742 -0.0264532 0)
(0.988213 -0.0174245 0)
(1.0228 -0.00214274 0)
(1.04886 -0.000565636 0)
(1.05858 0.00424259 0)
(1.06213 0.00728858 0)
(1.05062 0.00152396 0)
(1.02947 -0.00294326 0)
(1.01175 -0.00356637 0)
(1.00256 -0.00347378 0)
(0.997409 -0.000683448 0)
(0.997723 0.00288008 0)
(1.00116 0.00708422 0)
(1.007 -0.00187568 0)
(0.991371 -0.0129789 0)
(0.971053 -0.0124978 0)
(1.01439 0.0152639 0)
(1.04767 0.0119032 0)
(1.03682 -0.011435 0)
(1.00082 -0.0341344 0)
(0.977542 -0.0263145 0)
(0.984349 -0.0180732 0)
(1.00912 -0.00345304 0)
(1.03041 -0.00122033 0)
(1.03942 0.00378391 0)
(1.04536 0.00753082 0)
(1.03857 0.0023559 0)
(1.02184 -0.00186925 0)
(1.00716 -0.00264474 0)
(0.999211 -0.00291076 0)
(0.993487 -0.000365632 0)
(0.992487 0.00281656 0)
(0.99469 0.00676865 0)
(1.00686 -0.00183992 0)
(0.994791 -0.0126097 0)
(0.971736 -0.0127433 0)
(1.00169 0.0143405 0)
(1.03526 0.0116153 0)
(1.03217 -0.0109595 0)
(1.00249 -0.0330374 0)
(0.980373 -0.0260628 0)
(0.98219 -0.018427 0)
(0.997935 -0.00450121 0)
(1.01424 -0.00176017 0)
(1.02205 0.00329138 0)
(1.02922 0.00757677 0)
(1.02664 0.0029538 0)
(1.0144 -0.0010354 0)
(1.00285 -0.00184366 0)
(0.996828 -0.00238079 0)
(0.991315 1.7452e-05 0)
(0.989499 0.00290148 0)
(0.990468 0.00651563 0)
(1.00653 -0.0018256 0)
(0.996751 -0.0122518 0)
(0.973761 -0.0128206 0)
(0.993677 0.0135337 0)
(1.0264 0.0112318 0)
(1.02825 -0.0106593 0)
(1.00317 -0.0320191 0)
(0.982536 -0.0257403 0)
(0.981441 -0.0185444 0)
(0.990089 -0.00529208 0)
(1.00189 -0.00217276 0)
(1.0082 0.00280987 0)
(1.01561 0.00746531 0)
(1.01617 0.00333499 0)
(1.00782 -0.00044018 0)
(0.998956 -0.00119515 0)
(0.995002 -0.00191302 0)
(0.990291 0.000386059 0)
(0.988246 0.00309866 0)
(0.988369 0.00634909 0)
(1.00616 -0.00182156 0)
(0.997907 -0.0119132 0)
(0.976127 -0.0127911 0)
(0.989015 0.0128193 0)
(1.02034 0.010797 0)
(1.02508 -0.0104793 0)
(1.00326 -0.0310595 0)
(0.984056 -0.0253813 0)
(0.981538 -0.0184961 0)
(0.985228 -0.00587401 0)
(0.993452 -0.00246694 0)
(0.998266 0.0023726 0)
(1.00535 0.00724795 0)
(1.00788 0.00355098 0)
(1.00252 -5.42609e-05 0)
(0.995696 -0.000689294 0)
(0.993501 -0.00153429 0)
(0.989842 0.000672954 0)
(0.988023 0.00334773 0)
(0.987803 0.0062521 0)
(1.00579 -0.0018217 0)
(0.998647 -0.0115986 0)
(0.978296 -0.0126862 0)
(0.986379 0.0121753 0)
(1.01618 0.0103415 0)
(1.02256 -0.0103817 0)
(1.00305 -0.0301422 0)
(0.985067 -0.0250033 0)
(0.981983 -0.0183406 0)
(0.982482 -0.0062963 0)
(0.988119 -0.00266175 0)
(0.991696 0.00198962 0)
(0.9983 0.00696955 0)
(1.00194 0.00364771 0)
(0.998633 0.000178067 0)
(0.993231 -0.000299266 0)
(0.992311 -0.0012306 0)
(0.989638 0.000868793 0)
(0.988248 0.00359408 0)
(0.988067 0.00619656 0)
(1.00543 -0.00182291 0)
(0.999155 -0.0113071 0)
(0.98007 -0.012525 0)
(0.984909 0.0115828 0)
(1.01327 0.00987833 0)
(1.02059 -0.0103415 0)
(1.00271 -0.0292522 0)
(0.985731 -0.0246111 0)
(0.982482 -0.0181167 0)
(0.981038 -0.00660626 0)
(0.984913 -0.00278617 0)
(0.987637 0.00166068 0)
(0.993828 0.00664461 0)
(0.998036 0.00366444 0)
(0.996056 0.000309773 0)
(0.991602 -6.20089e-06 0)
(0.991508 -0.000964901 0)
(0.989588 0.000990808 0)
(0.988608 0.00380032 0)
(0.988629 0.0061624 0)
(1.00508 -0.00182346 0)
(0.99952 -0.0110357 0)
(0.981426 -0.0123184 0)
(0.984173 0.0110205 0)
(1.01122 0.00941235 0)
(1.01908 -0.0103384 0)
(1.00235 -0.028381 0)
(0.986188 -0.0242018 0)
(0.982917 -0.0178544 0)
(0.980351 -0.00683904 0)
(0.983048 -0.00286668 0)
(0.985298 0.00137356 0)
(0.991189 0.00628458 0)
(0.99569 0.00362718 0)
(0.994535 0.000371927 0)
(0.990708 0.000211802 0)
(0.991117 -0.000722801 0)
(0.989716 0.00105349 0)
(0.989007 0.00394314 0)
(0.989227 0.00613519 0)
(1.00471 -0.00182182 0)
(0.999805 -0.0107808 0)
(0.982412 -0.0120759 0)
(0.983956 0.0104703 0)
(1.00978 0.00894723 0)
(1.01793 -0.0103589 0)
(1.00202 -0.0275217 0)
(0.986537 -0.0237737 0)
(0.983267 -0.0175712 0)
(0.980106 -0.00701858 0)
(0.982005 -0.00292548 0)
(0.984089 0.00111174 0)
(0.989759 0.00589516 0)
(0.994401 0.00355534 0)
(0.993765 0.000401702 0)
(0.990369 0.000379868 0)
(0.991074 -0.000485299 0)
(0.990036 0.00108847 0)
(0.989445 0.00402738 0)
(0.989782 0.00611136 0)
(1.0043 -0.00181684 0)
(1.00006 -0.010538 0)
(0.983106 -0.011809 0)
(0.984116 0.00992305 0)
(1.00877 0.00848535 0)
(1.01706 -0.0103932 0)
(1.00174 -0.0266694 0)
(0.986844 -0.0233235 0)
(0.983558 -0.0172779 0)
(0.980133 -0.00716158 0)
(0.98147 -0.0029784 0)
(0.983604 0.000865026 0)
(0.989092 0.00547754 0)
(0.993781 0.00345296 0)
(0.993476 0.000417743 0)
(0.990398 0.000505018 0)
(0.991263 -0.000245578 0)
(0.990508 0.00111868 0)
(0.989927 0.00406017 0)
(0.990289 0.00608806 0)
(1.00385 -0.00180773 0)
(1.00029 -0.0103055 0)
(0.983599 -0.0115217 0)
(0.98453 0.0093721 0)
(1.00807 0.00802484 0)
(1.01636 -0.0104343 0)
(1.0015 -0.0258242 0)
(0.987148 -0.0228447 0)
(0.983832 -0.0169832 0)
(0.980341 -0.00727846 0)
(0.981264 -0.00303497 0)
(0.983575 0.000621513 0)
(0.988894 0.00504262 0)
(0.993556 0.00332207 0)
(0.993459 0.000421412 0)
(0.990639 0.000594628 0)
(0.991566 -9.97403e-06 0)
(0.991061 0.00116021 0)
(0.990437 0.00405135 0)
(0.990753 0.00605703 0)
(1.00338 -0.00179335 0)
(1.00051 -0.0100821 0)
(0.98398 -0.0112171 0)
(0.98509 0.00880881 0)
(1.00757 0.00756676 0)
(1.01573 -0.0104756 0)
(1.00129 -0.0249857 0)
(0.987466 -0.022337 0)
(0.984132 -0.0166889 0)
(0.980677 -0.00738117 0)
(0.981281 -0.00310112 0)
(0.983818 0.000378064 0)
(0.988971 0.00459641 0)
(0.993542 0.00316888 0)
(0.99357 0.000426331 0)
(0.990972 0.000662502 0)
(0.991899 0.000216798 0)
(0.991623 0.00122423 0)
(0.990949 0.0040313 0)
(0.99117 0.00602186 0)
(1.00291 -0.00177335 0)
(1.00069 -0.00986691 0)
(0.98433 -0.0108979 0)
(0.985709 0.00823202 0)
(1.0072 0.00711221 0)
(1.01511 -0.010511 0)
(1.00108 -0.0241568 0)
(0.987802 -0.021802 0)
(0.984489 -0.0163956 0)
(0.981104 -0.00747319 0)
(0.981454 -0.00317572 0)
(0.984201 0.000134929 0)
(0.989189 0.00414384 0)
(0.99361 0.00299184 0)
(0.993713 0.000433804 0)
(0.991313 0.000714546 0)
(0.992209 0.000432185 0)
(0.992147 0.00129634 0)
(0.991446 0.00401337 0)
(0.991537 0.00600824 0)
(1.00248 -0.00174633 0)
(1.0008 -0.00966133 0)
(0.984705 -0.0105699 0)
(0.986327 0.0076426 0)
(1.00688 0.00665939 0)
(1.01446 -0.010535 0)
(1.00086 -0.0233418 0)
(0.988146 -0.0212427 0)
(0.98491 -0.0161031 0)
(0.981586 -0.00755431 0)
(0.981732 -0.00325878 0)
(0.984634 -0.000114917 0)
(0.989461 0.00369273 0)
(0.993683 0.00279828 0)
(0.993833 0.000443534 0)
(0.991613 0.000757513 0)
(0.992471 0.000640713 0)
(0.992609 0.00136682 0)
(0.991929 0.00397106 0)
(0.991861 0.00602843 0)
(1.00214 -0.00171129 0)
(1.00082 -0.00946556 0)
(0.985127 -0.0102351 0)
(0.986909 0.00704172 0)
(1.00659 0.00620836 0)
(1.0138 -0.0105438 0)
(1.00062 -0.0225428 0)
(0.98849 -0.0206605 0)
(0.985387 -0.0158126 0)
(0.982091 -0.00762799 0)
(0.982076 -0.00334871 0)
(0.98506 -0.000370486 0)
(0.989743 0.00324876 0)
(0.993721 0.00258999 0)
(0.993912 0.000449194 0)
(0.991853 0.000794268 0)
(0.992684 0.000842359 0)
(0.993004 0.00144581 0)
(0.992406 0.00388307 0)
(0.992162 0.00604456 0)
(1.00189 -0.00166906 0)
(1.00077 -0.00927436 0)
(0.98559 -0.00989502 0)
(0.987445 0.00643477 0)
(1.00629 0.00575684 0)
(1.01314 -0.0105326 0)
(1.00037 -0.0217618 0)
(0.988826 -0.0200619 0)
(0.985901 -0.0155231 0)
(0.982599 -0.00769537 0)
(0.982458 -0.00344128 0)
(0.985456 -0.000623873 0)
(0.990018 0.00281279 0)
(0.993718 0.00237608 0)
(0.993954 0.000449079 0)
(0.992037 0.000819901 0)
(0.992859 0.00103394 0)
(0.993333 0.00154797 0)
(0.992879 0.00376528 0)
(0.992462 0.00600467 0)
(1.00174 -0.00162079 0)
(1.00067 -0.00908399 0)
(0.986071 -0.00955492 0)
(0.987938 0.00582545 0)
(1.00596 0.00530357 0)
(1.01248 -0.010502 0)
(1.00011 -0.0209985 0)
(0.989152 -0.0194531 0)
(0.986432 -0.0152286 0)
(0.9831 -0.00775719 0)
(0.982858 -0.00353525 0)
(0.985815 -0.000876085 0)
(0.990284 0.0023855 0)
(0.99368 0.00216477 0)
(0.99397 0.000446378 0)
(0.992178 0.000829044 0)
(0.993009 0.00120171 0)
(0.993607 0.00167328 0)
(0.993338 0.00365093 0)
(0.992775 0.00589078 0)
(1.00166 -0.00156582 0)
(1.00055 -0.00889772 0)
(0.986548 -0.00921646 0)
(0.988399 0.00521983 0)
(1.00559 0.00484644 0)
(1.01185 -0.0104521 0)
(0.99985 -0.0202525 0)
(0.989471 -0.0188345 0)
(0.986967 -0.0149283 0)
(0.983596 -0.00781868 0)
(0.983263 -0.00362859 0)
(0.986141 -0.00112997 0)
(0.990542 0.00196684 0)
(0.993618 0.00195353 0)
(0.993968 0.000440088 0)
(0.992287 0.000829261 0)
(0.993144 0.00133654 0)
(0.993837 0.00179892 0)
(0.993773 0.00356836 0)
(0.9931 0.00573375 0)
(1.00161 -0.00150462 0)
(1.00046 -0.00871375 0)
(0.987012 -0.00888282 0)
(0.988842 0.00462035 0)
(1.00519 0.00438145 0)
(1.01123 -0.0103827 0)
(0.999607 -0.0195259 0)
(0.989785 -0.0182084 0)
(0.987497 -0.0146248 0)
(0.984094 -0.00788151 0)
(0.983666 -0.0037169 0)
(0.986442 -0.00138044 0)
(0.990793 0.00155587 0)
(0.993543 0.00174899 0)
(0.993951 0.000432217 0)
(0.992374 0.000824988 0)
(0.993266 0.00145003 0)
(0.994035 0.0019006 0)
(0.994176 0.00350316 0)
(0.993429 0.0055735 0)
(1.00157 -0.0014415 0)
(1.00039 -0.00852437 0)
(0.987464 -0.00855413 0)
(0.989276 0.0040295 0)
(1.00477 0.0039105 0)
(1.01061 -0.0102983 0)
(0.999385 -0.0188172 0)
(0.990095 -0.0175771 0)
(0.98802 -0.0143145 0)
(0.984605 -0.00794125 0)
(0.984064 -0.00379514 0)
(0.986724 -0.00161937 0)
(0.991035 0.00115136 0)
(0.993465 0.00155408 0)
(0.993918 0.000428737 0)
(0.992447 0.000806746 0)
(0.993371 0.00155155 0)
(0.994205 0.00198985 0)
(0.994548 0.00342011 0)
(0.993758 0.00540788 0)
(1.00151 -0.00137503 0)
(1.00036 -0.0083311 0)
(0.987915 -0.00823004 0)
(0.989712 0.0034519 0)
(1.00434 0.00343461 0)
(1.00999 -0.0101999 0)
(0.999183 -0.0181274 0)
(0.9904 -0.0169446 0)
(0.988535 -0.0139988 0)
(0.985136 -0.0080027 0)
(0.984459 -0.00386581 0)
(0.986997 -0.00184138 0)
(0.99127 0.000751842 0)
(0.993394 0.00136507 0)
(0.993868 0.00043209 0)
(0.992513 0.000764169 0)
(0.993465 0.00162508 0)
(0.994347 0.00209311 0)
(0.994885 0.00332271 0)
(0.99409 0.00520658 0)
(1.00143 -0.0013062 0)
(1.00036 -0.00813167 0)
(0.988374 -0.00791392 0)
(0.990153 0.00288754 0)
(1.00391 0.00295422 0)
(1.00935 -0.0100895 0)
(0.999 -0.0174589 0)
(0.990696 -0.0163104 0)
(0.989039 -0.0136773 0)
(0.985689 -0.00806569 0)
(0.984854 -0.00393437 0)
(0.987264 -0.00204335 0)
(0.991499 0.000355417 0)
(0.993341 0.00117768 0)
(0.993804 0.000450603 0)
(0.992574 0.000714921 0)
(0.993559 0.00165014 0)
(0.994468 0.00220722 0)
(0.99518 0.00324874 0)
(0.994425 0.00495899 0)
(1.00133 -0.00123683 0)
(1.00037 -0.00792553 0)
(0.988847 -0.00760419 0)
(0.9906 0.0023374 0)
(1.00349 0.00246906 0)
(1.0087 -0.00996802 0)
(0.998835 -0.0168112 0)
(0.990981 -0.015678 0)
(0.989529 -0.0133408 0)
(0.986261 -0.00812621 0)
(0.98525 -0.00400031 0)
(0.987528 -0.00221965 0)
(0.991726 -3.21759e-05 0)
(0.993315 0.000984275 0)
(0.993731 0.00048339 0)
(0.992628 0.000680626 0)
(0.99366 0.00163059 0)
(0.994581 0.00230027 0)
(0.99543 0.00322134 0)
(0.994753 0.00469102 0)
(1.00121 -0.00116427 0)
(1.00039 -0.00772075 0)
(0.989334 -0.00729634 0)
(0.991053 0.00180101 0)
(1.00309 0.00198948 0)
(1.00804 -0.00983162 0)
(0.998684 -0.0161868 0)
(0.991255 -0.0150524 0)
(0.990001 -0.012991 0)
(0.986847 -0.00818972 0)
(0.985652 -0.00406806 0)
(0.987788 -0.00236549 0)
(0.991952 -0.000405872 0)
(0.993323 0.000776006 0)
(0.993659 0.000518178 0)
(0.992675 0.000661329 0)
(0.993768 0.00158621 0)
(0.994698 0.00234838 0)
(0.995638 0.00322492 0)
(0.995058 0.00444445 0)
(1.00108 -0.00108994 0)
(1.0004 -0.00751521 0)
(0.989831 -0.00699147 0)
(0.991507 0.00127508 0)
(1.0027 0.00151724 0)
(1.00738 -0.00968324 0)
(0.998545 -0.015592 0)
(0.991519 -0.0144334 0)
(0.99045 -0.0126243 0)
(0.987438 -0.00824955 0)
(0.986062 -0.00414387 0)
(0.988042 -0.00247826 0)
(0.992177 -0.000755159 0)
(0.993369 0.000551159 0)
(0.993595 0.000553672 0)
(0.992713 0.000656284 0)
(0.993881 0.00152872 0)
(0.994824 0.0023546 0)
(0.995818 0.00323466 0)
(0.995327 0.00424787 0)
(1.00095 -0.00101407 0)
(1.00042 -0.00730905 0)
(0.990331 -0.00669097 0)
(0.991958 0.000760238 0)
(1.00233 0.00104604 0)
(1.00672 -0.00951716 0)
(0.998418 -0.0150311 0)
(0.991776 -0.01383 0)
(0.990873 -0.0122378 0)
(0.988027 -0.00830874 0)
(0.98648 -0.00423663 0)
(0.988288 -0.00256016 0)
(0.992395 -0.00107431 0)
(0.993451 0.000304169 0)
(0.993546 0.000584187 0)
(0.992739 0.000668103 0)
(0.993993 0.00146013 0)
(0.994962 0.00232581 0)
(0.995979 0.0032364 0)
(0.995552 0.00410905 0)
(1.00083 -0.000935361 0)
(1.00043 -0.00710801 0)
(0.990829 -0.00638788 0)
(0.992401 0.000256416 0)
(1.00197 0.000578645 0)
(1.00608 -0.0093279 0)
(0.998302 -0.0144982 0)
(0.992028 -0.0132509 0)
(0.991266 -0.0118314 0)
(0.988607 -0.00835419 0)
(0.986912 -0.00434702 0)
(0.988526 -0.00262309 0)
(0.992603 -0.00135921 0)
(0.993569 3.26847e-05 0)
(0.99352 0.000599538 0)
(0.992752 0.000702525 0)
(0.994099 0.00138405 0)
(0.995111 0.00226083 0)
(0.996133 0.00321558 0)
(0.995733 0.00401853 0)
(1.0007 -0.000855519 0)
(1.00045 -0.00691459 0)
(0.991319 -0.00608137 0)
(0.992832 -0.000221744 0)
(1.00163 0.0001181 0)
(1.00545 -0.00911125 0)
(0.998196 -0.0139861 0)
(0.99228 -0.0127037 0)
(0.991632 -0.0114101 0)
(0.989173 -0.00837382 0)
(0.987356 -0.00446894 0)
(0.988756 -0.00267075 0)
(0.992796 -0.00159654 0)
(0.993719 -0.000253481 0)
(0.993525 0.000585418 0)
(0.992752 0.000762274 0)
(0.994188 0.00131357 0)
(0.995269 0.00215978 0)
(0.996291 0.00315465 0)
(0.99588 0.00394908 0)
(1.00059 -0.000773756 0)
(1.00047 -0.00672802 0)
(0.991801 -0.005783 0)
(0.993249 -0.000668035 0)
(1.00131 -0.000346657 0)
(1.00484 -0.00887234 0)
(0.998098 -0.0134855 0)
(0.992532 -0.0121944 0)
(0.991972 -0.0109809 0)
(0.989719 -0.00836832 0)
(0.987814 -0.00460469 0)
(0.988984 -0.00271378 0)
(0.992968 -0.00178725 0)
(0.993893 -0.00054625 0)
(0.993568 0.000529802 0)
(0.992744 0.000840036 0)
(0.994253 0.00127174 0)
(0.995426 0.0020341 0)
(0.996458 0.00304902 0)
(0.99601 0.00386859 0)
(1.00047 -0.0006912 0)
(1.00049 -0.00654649 0)
(0.992273 -0.00549779 0)
(0.993649 -0.00107906 0)
(1.00102 -0.000825451 0)
(1.00425 -0.00862139 0)
(0.998007 -0.012989 0)
(0.992787 -0.0117259 0)
(0.992287 -0.0105447 0)
(0.990242 -0.00832348 0)
(0.988284 -0.00474668 0)
(0.989215 -0.0027616 0)
(0.993116 -0.0019367 0)
(0.994084 -0.000834561 0)
(0.993655 0.000427215 0)
(0.992738 0.000920376 0)
(0.994286 0.00126921 0)
(0.99557 0.00189689 0)
(0.996635 0.00290111 0)
(0.996135 0.00376149 0)
(1.00036 -0.000610687 0)
(1.00052 -0.00636894 0)
(0.992737 -0.00522827 0)
(0.994029 -0.00144559 0)
(1.00074 -0.00131323 0)
(1.00368 -0.00836873 0)
(0.997921 -0.012489 0)
(0.993047 -0.0113019 0)
(0.992583 -0.0101185 0)
(0.990738 -0.00824554 0)
(0.988765 -0.00488802 0)
(0.989453 -0.00281262 0)
(0.993241 -0.00204294 0)
(0.994281 -0.00110687 0)
(0.993789 0.000276685 0)
(0.992748 0.000987192 0)
(0.994284 0.00130318 0)
(0.995688 0.00176534 0)
(0.996821 0.00271327 0)
(0.996268 0.00362642 0)
(1.00026 -0.000531519 0)
(1.00055 -0.00619016 0)
(0.993192 -0.00498738 0)
(0.994387 -0.0017518 0)
(1.00048 -0.00180205 0)
(1.00315 -0.0081301 0)
(0.997837 -0.0119717 0)
(0.993309 -0.0109096 0)
(0.992865 -0.00971425 0)
(0.991206 -0.00812994 0)
(0.989255 -0.00501348 0)
(0.989708 -0.00287003 0)
(0.993345 -0.00210923 0)
(0.994474 -0.00135271 0)
(0.993969 8.09324e-05 0)
(0.992786 0.0010212 0)
(0.994251 0.00136912 0)
(0.995766 0.001661 0)
(0.99701 0.00248908 0)
(0.996419 0.00345592 0)
(1.00017 -0.00045797 0)
(1.00059 -0.00600461 0)
(0.993642 -0.00477986 0)
(0.994725 -0.00197947 0)
(1.00024 -0.00227645 0)
(1.00266 -0.00792585 0)
(0.997757 -0.0114362 0)
(0.993571 -0.0105328 0)
(0.993137 -0.00933777 0)
(0.991647 -0.00798004 0)
(0.989748 -0.00511499 0)
(0.989982 -0.00293285 0)
(0.993434 -0.00214817 0)
(0.994653 -0.00156018 0)
(0.994192 -0.000149693 0)
(0.992868 0.000999471 0)
(0.994197 0.00145187 0)
(0.995788 0.0016063 0)
(0.997187 0.00224609 0)
(0.9966 0.00323179 0)
(1.00008 -0.000391904 0)
(1.00063 -0.00580736 0)
(0.994087 -0.00461422 0)
(0.99504 -0.00214352 0)
(1.00002 -0.00271412 0)
(1.00221 -0.00776564 0)
(0.997685 -0.0108971 0)
(0.99383 -0.0101624 0)
(0.993402 -0.00898353 0)
(0.992065 -0.00781228 0)
(0.99024 -0.00518816 0)
(0.990277 -0.00299443 0)
(0.993515 -0.00216567 0)
(0.994816 -0.00172004 0)
(0.994446 -0.000394866 0)
(0.993005 0.000910386 0)
(0.994143 0.00150988 0)
(0.995748 0.00160448 0)
(0.997326 0.00202815 0)
(0.996813 0.00294521 0)
(0.999994 -0.000334154 0)
(1.00067 -0.00559412 0)
(0.994529 -0.00449262 0)
(0.995336 -0.00226262 0)
(0.999812 -0.00309631 0)
(1.00181 -0.0076453 0)
(0.997624 -0.0103679 0)
(0.994083 -0.00978159 0)
(0.993661 -0.0086497 0)
(0.992463 -0.0076305 0)
(0.990732 -0.00523412 0)
(0.990593 -0.00305667 0)
(0.993593 -0.00216903 0)
(0.994957 -0.00183649 0)
(0.994721 -0.000639169 0)
(0.993199 0.000761038 0)
(0.994112 0.00150733 0)
(0.995662 0.00162428 0)
(0.9974 0.00187919 0)
(0.997039 0.00262671 0)
(0.999919 -0.000286488 0)
(1.00071 -0.00536606 0)
(0.994969 -0.00440672 0)
(0.995615 -0.00235144 0)
(0.999609 -0.00339655 0)
(1.00146 -0.00756839 0)
(0.997583 -0.00986299 0)
(0.994329 -0.00937853 0)
(0.993913 -0.00833268 0)
(0.992844 -0.00743306 0)
(0.991222 -0.00524712 0)
(0.990931 -0.00312042 0)
(0.993673 -0.00216775 0)
(0.995075 -0.00190708 0)
(0.995004 -0.000870763 0)
(0.993445 0.000562885 0)
(0.994123 0.00144821 0)
(0.995559 0.00162149 0)
(0.997404 0.00179458 0)
(0.997242 0.00233718 0)
(0.99985 -0.000252727 0)
(1.00074 -0.00511543 0)
(0.995406 -0.00435916 0)
(0.995886 -0.00242762 0)
(0.999406 -0.00359655 0)
(1.00114 -0.00751051 0)
(0.99757 -0.00939536 0)
(0.994571 -0.00895953 0)
(0.994156 -0.00801867 0)
(0.993212 -0.00723434 0)
(0.991709 -0.00523237 0)
(0.991288 -0.00318618 0)
(0.993762 -0.00217223 0)
(0.995169 -0.00193865 0)
(0.995281 -0.00107513 0)
(0.99374 0.000322311 0)
(0.994181 0.0013434 0)
(0.995463 0.00157939 0)
(0.99736 0.00172656 0)
(0.997391 0.00211792 0)
(0.99979 -0.000233101 0)
(1.00077 -0.00484248 0)
(0.995835 -0.00434307 0)
(0.996154 -0.00250469 0)
(0.999205 -0.00370361 0)
(1.00087 -0.0074416 0)
(0.997589 -0.00898329 0)
(0.994812 -0.00853132 0)
(0.994386 -0.00768282 0)
(0.993564 -0.00703398 0)
(0.992192 -0.00521144 0)
(0.991665 -0.00325914 0)
(0.993867 -0.00218393 0)
(0.995244 -0.00194213 0)
(0.995538 -0.0012305 0)
(0.994072 6.66979e-05 0)
(0.994297 0.00119549 0)
(0.995386 0.0015188 0)
(0.997293 0.00164261 0)
(0.997482 0.00195752 0)
(0.999736 -0.00022518 0)
(1.00079 -0.00455815 0)
(0.996253 -0.00433998 0)
(0.996426 -0.00259575 0)
(0.999006 -0.0037304 0)
(1.00062 -0.00734 0)
(0.997642 -0.00863462 0)
(0.995064 -0.00811515 0)
(0.994604 -0.00732069 0)
(0.993894 -0.00681214 0)
(0.992665 -0.00518075 0)
(0.992063 -0.00333598 0)
(0.993999 -0.00221083 0)
(0.99531 -0.00193144 0)
(0.995769 -0.00133955 0)
(0.994425 -0.000179014 0)
(0.994473 0.000998829 0)
(0.995337 0.00144234 0)
(0.997218 0.00154579 0)
(0.997531 0.00181696 0)
(0.99969 -0.000231158 0)
(1.0008 -0.00426075 0)
(0.996655 -0.00433612 0)
(0.996707 -0.0027166 0)
(0.998814 -0.00370473 0)
(1.00038 -0.00718499 0)
(0.997725 -0.00833153 0)
(0.995332 -0.00773747 0)
(0.994814 -0.006946 0)
(0.994199 -0.00655958 0)
(0.993121 -0.00513227 0)
(0.992476 -0.00341591 0)
(0.994161 -0.00225059 0)
(0.995377 -0.0019119 0)
(0.995971 -0.00140597 0)
(0.99478 -0.000396798 0)
(0.994705 0.000763918 0)
(0.995329 0.0013301 0)
(0.997139 0.00144791 0)
(0.99756 0.0016658 0)
(0.99965 -0.000248454 0)
(1.0008 -0.00395899 0)
(0.997034 -0.00432019 0)
(0.996999 -0.00287053 0)
(0.998636 -0.00364628 0)
(1.00016 -0.00696416 0)
(0.997827 -0.00805659 0)
(0.995622 -0.00742018 0)
(0.995023 -0.00656619 0)
(0.994477 -0.00626892 0)
(0.993553 -0.00504868 0)
(0.992901 -0.00349529 0)
(0.994359 -0.00230515 0)
(0.995457 -0.00190105 0)
(0.996148 -0.00144399 0)
(0.995119 -0.000575293 0)
(0.994979 0.000524783 0)
(0.995373 0.00117888 0)
(0.997064 0.0013547 0)
(0.997575 0.00151423 0)
(0.999616 -0.000272821 0)
(1.00079 -0.00366432 0)
(0.997381 -0.00427724 0)
(0.997301 -0.00306816 0)
(0.998483 -0.00357038 0)
(0.999934 -0.0066766 0)
(0.997935 -0.00777298 0)
(0.995938 -0.00716923 0)
(0.995244 -0.00620948 0)
(0.99473 -0.00594548 0)
(0.993949 -0.00492031 0)
(0.993322 -0.00355519 0)
(0.994587 -0.00237909 0)
(0.995557 -0.00190207 0)
(0.996311 -0.00146382 0)
(0.995441 -0.000716707 0)
(0.995278 0.000305063 0)
(0.995472 0.00100231 0)
(0.997006 0.00125507 0)
(0.997577 0.00137924 0)
(0.999588 -0.000302904 0)
(1.00076 -0.00338423 0)
(0.997689 -0.00419809 0)
(0.997612 -0.00328859 0)
(0.998366 -0.00350268 0)
(0.999715 -0.00633915 0)
(0.998031 -0.00746111 0)
(0.996269 -0.00696655 0)
(0.995489 -0.00590459 0)
(0.994966 -0.00560136 0)
(0.994306 -0.00474095 0)
(0.993729 -0.00358029 0)
(0.994843 -0.00246018 0)
(0.995685 -0.00191644 0)
(0.996462 -0.00146975 0)
(0.995741 -0.00082512 0)
(0.995589 0.000112371 0)
(0.995617 0.000822603 0)
(0.996976 0.00114179 0)
(0.997565 0.0012592 0)
(0.999564 -0.000332861 0)
(1.00073 -0.0031382 0)
(0.997954 -0.00407808 0)
(0.997924 -0.00349853 0)
(0.998292 -0.00345725 0)
(0.999504 -0.00597077 0)
(0.998104 -0.00710313 0)
(0.996606 -0.00679163 0)
(0.995767 -0.00567037 0)
(0.9952 -0.00526772 0)
(0.99462 -0.00450849 0)
(0.994106 -0.00356029 0)
(0.995111 -0.00253657 0)
(0.995843 -0.00195755 0)
(0.996616 -0.00147782 0)
(0.996023 -0.000907995 0)
(0.995906 -6.28409e-05 0)
(0.995801 0.000639535 0)
(0.996978 0.00101134 0)
(0.997544 0.00113942 0)
(0.999544 -0.000354692 0)
(1.0007 -0.00292959 0)
(0.998177 -0.00392978 0)
(0.998231 -0.00369176 0)
(0.998265 -0.00344367 0)
(0.999313 -0.00559491 0)
(0.998145 -0.00667914 0)
(0.996925 -0.00660211 0)
(0.996076 -0.00551079 0)
(0.995451 -0.00498375 0)
(0.994902 -0.00424638 0)
(0.994442 -0.0034827 0)
(0.995378 -0.00258576 0)
(0.996027 -0.00200897 0)
(0.99678 -0.00149391 0)
(0.996284 -0.000971016 0)
(0.996215 -0.000218578 0)
(0.996017 0.000453219 0)
(0.997014 0.000866294 0)
(0.99753 0.00101379 0)
(0.999526 -0.000371451 0)
(1.00067 -0.00274862 0)
(0.998361 -0.00375097 0)
(0.998525 -0.00384035 0)
(0.99829 -0.00346612 0)
(0.999157 -0.00523945 0)
(0.998157 -0.00622707 0)
(0.997205 -0.00636668 0)
(0.996402 -0.00539638 0)
(0.995733 -0.00477423 0)
(0.995167 -0.00398942 0)
(0.994734 -0.00335136 0)
(0.995627 -0.00259283 0)
(0.996226 -0.00206286 0)
(0.996957 -0.00152828 0)
(0.996532 -0.00102451 0)
(0.996511 -0.000347858 0)
(0.996252 0.000278814 0)
(0.997085 0.000717683 0)
(0.997529 0.000889153 0)
(0.99951 -0.000378715 0)
(1.00064 -0.00259212 0)
(0.998509 -0.00352795 0)
(0.998794 -0.00392506 0)
(0.998358 -0.00351589 0)
(0.999041 -0.00492322 0)
(0.998149 -0.00577752 0)
(0.997437 -0.00608004 0)
(0.996723 -0.00527916 0)
(0.996047 -0.00464821 0)
(0.99544 -0.00377558 0)
(0.994992 -0.003186 0)
(0.995842 -0.00255214 0)
(0.996422 -0.0020981 0)
(0.997146 -0.00157109 0)
(0.996776 -0.00108164 0)
(0.996793 -0.000457614 0)
(0.996497 0.000119895 0)
(0.997185 0.000568938 0)
(0.99754 0.000763287 0)
(0.999496 -0.00037727 0)
(1.00062 -0.00244984 0)
(0.998627 -0.00327387 0)
(0.999028 -0.00393085 0)
(0.998461 -0.00357722 0)
(0.998972 -0.00467909 0)
(0.998129 -0.00535089 0)
(0.997618 -0.0057607 0)
(0.997011 -0.00512883 0)
(0.996378 -0.00456919 0)
(0.995736 -0.00362542 0)
(0.995229 -0.00301375 0)
(0.996019 -0.00246504 0)
(0.996601 -0.00210521 0)
(0.997334 -0.00161036 0)
(0.997016 -0.00114547 0)
(0.997062 -0.00055795 0)
(0.996743 -2.75789e-05 0)
(0.997307 0.000421449 0)
(0.997563 0.000636949 0)
(0.999484 -0.000366917 0)
(1.0006 -0.00231848 0)
(0.998724 -0.00303022 0)
(0.999219 -0.00386867 0)
(0.998575 -0.00362918 0)
(0.998948 -0.00450354 0)
(0.998113 -0.00495584 0)
(0.997756 -0.00542226 0)
(0.997258 -0.00492674 0)
(0.996706 -0.00448104 0)
(0.996059 -0.00354046 0)
(0.99547 -0.00287083 0)
(0.996162 -0.0023409 0)
(0.996747 -0.00208095 0)
(0.997512 -0.00163706 0)
(0.997248 -0.00120363 0)
(0.99732 -0.000652784 0)
(0.996987 -0.00016237 0)
(0.997447 0.000276115 0)
(0.997598 0.00051394 0)
(0.999475 -0.000343864 0)
(1.00059 -0.00220909 0)
(0.998805 -0.00281183 0)
(0.999371 -0.00374766 0)
(0.998694 -0.0036356 0)
(0.998973 -0.00436446 0)
(0.998115 -0.00459635 0)
(0.997861 -0.005075 0)