/*--------------------------------*- C++ -*----------------------------------*\
| =========                 |                                                 |
| \\      /  F ield         | OpenFOAM: The Open Source CFD Toolbox           |
|  \\    /   O peration     | Version:  2506                                  |
|   \\  /    A nd           | Website:  www.openfoam.com                      |
|    \\/     M anipulation  |                                                 |
\*---------------------------------------------------------------------------*/
FoamFile
{
    version     2.0;
    format      ascii;
    arch        "LSB;label=32;scalar=64";
    class       volVectorField;
    location    "9.5";
    object      U;
}
// * * * * * * * * * * * * * * * * * * * * * * * * * * * * * * * * * * * * * //

dimensions      [0 1 -1 0 0 0 0];

internalField   nonuniform List<vector> 
9600
(
(0.678798 -7.99647e-05 0)
(1.29751 0.000778468 0)
(0.592578 -0.0154592 0)
(1.51025 0.0150261 0)
(0.671063 0.00316728 0)
(1.17634 -0.000973906 0)
(0.742695 -0.0112112 0)
(1.25992 0.00570115 0)
(0.736164 0.00786341 0)
(1.25379 0.0158507 0)
(0.767873 0.0152956 0)
(1.20812 0.0170289 0)
(0.834545 0.00740865 0)
(1.15836 0.00673607 0)
(0.837675 0.0030087 0)
(1.15564 0.00157405 0)
(0.846667 -0.00203697 0)
(1.14575 0.00170785 0)
(0.863601 0.00208823 0)
(1.13809 0.00620772 0)
(0.687673 -8.42182e-05 0)
(1.28983 0.00196884 0)
(0.598696 -0.0178819 0)
(1.50128 0.0142268 0)
(0.707396 0.00633762 0)
(1.17412 -0.00134624 0)
(0.761341 -0.012798 0)
(1.25715 0.00590933 0)
(0.751645 0.00764214 0)
(1.24378 0.0158314 0)
(0.792756 0.01549 0)
(1.18381 0.0163886 0)
(0.87877 0.00783849 0)
(1.12547 0.00707842 0)
(0.897074 0.00281052 0)
(1.10512 0.00150618 0)
(0.927253 -0.00165994 0)
(1.06885 0.000615187 0)
(0.97109 0.00348283 0)
(1.02181 0.00451007 0)
(0.706642 -7.74458e-05 0)
(1.27361 0.00284493 0)
(0.614199 -0.0199783 0)
(1.48044 0.0140139 0)
(0.773226 0.00862654 0)
(1.16478 -0.00144336 0)
(0.796396 -0.0140307 0)
(1.24355 0.00647468 0)
(0.795983 0.00743725 0)
(1.21555 0.0157614 0)
(0.851373 0.0160029 0)
(1.13739 0.015357 0)
(0.946519 0.00860932 0)
(1.08189 0.00690833 0)
(0.965405 0.00317119 0)
(1.05753 0.000874623 0)
(0.990428 -0.000920486 0)
(1.02681 -0.000124465 0)
(1.0115 0.00417471 0)
(1.00825 0.00504057 0)
(0.736781 -9.16127e-05 0)
(1.24722 0.00376916 0)
(0.64219 -0.0219272 0)
(1.44359 0.0132097 0)
(0.860223 0.0109657 0)
(1.14596 -0.00112271 0)
(0.844896 -0.0150927 0)
(1.21276 0.00671651 0)
(0.864739 0.00753646 0)
(1.17082 0.0153961 0)
(0.923766 0.0168887 0)
(1.09118 0.0141575 0)
(1.00254 0.00924561 0)
(1.05471 0.00673041 0)
(1.00762 0.00363827 0)
(1.03657 0.000419921 0)
(1.01592 -0.000354944 0)
(1.01999 -0.000335846 0)
(1.0191 0.00434571 0)
(1.01596 0.00591306 0)
(0.777662 -0.000110745 0)
(1.21043 0.00472316 0)
(0.684854 -0.0238045 0)
(1.38787 0.011503 0)
(0.954141 0.0133302 0)
(1.12243 -0.00044929 0)
(0.897054 -0.015914 0)
(1.16655 0.00643115 0)
(0.937313 0.00794808 0)
(1.12318 0.0148465 0)
(0.984293 0.0177949 0)
(1.0631 0.013158 0)
(1.03403 0.00958727 0)
(1.04651 0.00682402 0)
(1.02702 0.00407569 0)
(1.03094 0.00029508 0)
(1.02239 1.35326e-05 0)
(1.0204 -0.000317049 0)
(1.02055 0.00440858 0)
(1.01919 0.00660351 0)
(0.826065 -0.000131903 0)
(1.16593 0.00562941 0)
(0.73948 -0.0254867 0)
(1.31529 0.00915648 0)
(1.03646 0.0154918 0)
(1.10186 0.000626212 0)
(0.941102 -0.0163522 0)
(1.11478 0.00577636 0)
(0.993171 0.00841876 0)
(1.08656 0.0143875 0)
(1.02254 0.0184086 0)
(1.0532 0.0125785 0)
(1.04721 0.00973344 0)
(1.0462 0.00706764 0)
(1.03506 0.00455867 0)
(1.02892 0.000432579 0)
(1.02155 0.000321646 0)
(1.0183 -0.000225735 0)
(1.01895 0.00443252 0)
(1.01858 0.00708572 0)
(0.876027 -0.000149093 0)
(1.11961 0.00643826 0)
(0.798355 -0.0268422 0)
(1.23428 0.00642655 0)
(1.09271 0.0172087 0)
(1.08874 0.00207622 0)
(0.97069 -0.0163145 0)
(1.06859 0.00494959 0)
(1.02435 0.00868707 0)
(1.06509 0.0141147 0)
(1.04214 0.0186882 0)
(1.05245 0.012346 0)
(1.05117 0.00982519 0)
(1.04618 0.00735459 0)
(1.03767 0.00512587 0)
(1.02691 0.000785645 0)
(1.018 0.000660471 0)
(1.01372 -6.25369e-05 0)
(1.01448 0.00437035 0)
(1.01512 0.00738732 0)
(0.920624 -0.000163149 0)
(1.07877 0.0071266 0)
(0.852905 -0.0277969 0)
(1.15637 0.00358288 0)
(1.11796 0.0182985 0)
(1.08208 0.0037696 0)
(0.987247 -0.0158117 0)
(1.03391 0.0040787 0)
(1.03413 0.0086287 0)
(1.05391 0.0139176 0)
(1.05029 0.0187272 0)
(1.05338 0.0123137 0)
(1.05094 0.00996287 0)
(1.04438 0.00767042 0)
(1.03705 0.0057515 0)
(1.02454 0.0013107 0)
(1.01401 0.00108916 0)
(1.00854 0.000202444 0)
(1.00864 0.00422641 0)
(1.00976 0.00756131 0)
(0.954624 -0.00018414 0)
(1.04894 0.00769009 0)
(0.897929 -0.0283378 0)
(1.09082 0.000947914 0)
(1.11631 0.0187128 0)
(1.07772 0.00548917 0)
(0.996161 -0.0149339 0)
(1.01084 0.00327378 0)
(1.03008 0.00826826 0)
(1.04587 0.0136394 0)
(1.05134 0.0186095 0)
(1.05228 0.012387 0)
(1.04807 0.0101811 0)
(1.04084 0.00801143 0)
(1.03438 0.00639118 0)
(1.02199 0.00193983 0)
(1.01065 0.00158588 0)
(1.00424 0.000586286 0)
(1.00316 0.00408493 0)
(1.00394 0.00768953 0)
(0.976346 -0.000224286 0)
(1.03139 0.00811707 0)
(0.932367 -0.0284869 0)
(1.04183 -0.00125481 0)
(1.09718 0.0185426 0)
(1.07179 0.00701729 0)
(1.00191 -0.0138085 0)
(0.996847 0.00263775 0)
(1.01941 0.00772992 0)
(1.03653 0.0132028 0)
(1.04686 0.018375 0)
(1.04781 0.0125009 0)
(1.04297 0.01045 0)
(1.03597 0.00835829 0)
(1.0306 0.00699222 0)
(1.01956 0.00260856 0)
(1.00834 0.00209962 0)
(1.0015 0.00107951 0)
(0.9992 0.00403533 0)
(0.998981 0.00781805 0)
(0.98761 -0.000291338 0)
(1.02338 0.00839631 0)
(0.957525 -0.0282937 0)
(1.00911 -0.00294814 0)
(1.07099 0.0179497 0)
(1.06289 0.00820251 0)
(1.00619 -0.0125794 0)
(0.989278 0.00223178 0)
(1.00763 0.00717122 0)
(1.02544 0.0126339 0)
(1.03823 0.0180421 0)
(1.04029 0.0125924 0)
(1.03619 0.0107089 0)
(1.03039 0.00867518 0)
(1.02652 0.00750653 0)
(1.01753 0.00326057 0)
(1.00713 0.00260255 0)
(1.00031 0.0016724 0)
(0.997117 0.00410715 0)
(0.995633 0.00795637 0)
(0.992102 -0.000380397 0)
(1.02051 0.00851834 0)
(0.975301 -0.0278325 0)
(0.989819 -0.00415905 0)
(1.04579 0.0171196 0)
(1.05184 0.00899267 0)
(1.0089 -0.0113724 0)
(0.986078 0.00205361 0)
(0.998281 0.00671628 0)
(1.01468 0.0120132 0)
(1.02784 0.0176346 0)
(1.03132 0.0126143 0)
(1.02884 0.010901 0)
(1.02483 0.00892696 0)
(1.0227 0.00789816 0)
(1.01596 0.00385177 0)
(1.00685 0.00307192 0)
(1.00036 0.00231988 0)
(0.99673 0.00429095 0)
(0.994071 0.00812435 0)
(0.993404 -0.000478181 0)
(1.01916 0.00849173 0)
(0.98744 -0.0271888 0)
(0.98023 -0.00497151 0)
(1.02573 0.0162172 0)
(1.04039 0.00943699 0)
(1.00978 -0.0102729 0)
(0.985551 0.00204048 0)
(0.992839 0.00641228 0)
(1.00656 0.0114201 0)
(1.01846 0.0171934 0)
(1.02293 0.0125553 0)
(1.02217 0.0109959 0)
(1.01994 0.00909707 0)
(1.01945 0.00814889 0)
(1.01474 0.00436481 0)
(1.00711 0.00348673 0)
(1.00117 0.00297077 0)
(0.997563 0.00457922 0)
(0.994087 0.00834174 0)
(0.993842 -0.000571445 0)
(1.01752 0.00834798 0)
(0.995412 -0.0264443 0)
(0.976751 -0.00548236 0)
(1.01156 0.0153472 0)
(1.03008 0.00963015 0)
(1.00912 -0.00932227 0)
(0.986305 0.00209927 0)
(0.990932 0.00623602 0)
(1.002 0.010901 0)
(1.01187 0.016762 0)
(1.01661 0.0124373 0)
(1.01706 0.0109966 0)
(1.01611 0.00919543 0)
(1.01687 0.00827577 0)
(1.01367 0.00479386 0)
(1.00747 0.00383651 0)
(1.00224 0.00358273 0)
(0.999051 0.00495111 0)
(0.995254 0.00859036 0)
(0.994398 -0.000650314 0)
(1.01527 0.00812128 0)
(1.00042 -0.0256583 0)
(0.97653 -0.00577206 0)
(1.00223 0.0145624 0)
(1.02173 0.00965543 0)
(1.00767 -0.00851555 0)
(0.987405 0.00215565 0)
(0.991238 0.00613922 0)
(1.00039 0.0104623 0)
(1.00833 0.0163641 0)
(1.01273 0.0122966 0)
(1.01374 0.0109312 0)
(1.01343 0.00925252 0)
(1.01493 0.00831363 0)
(1.01267 0.0051467 0)
(1.00767 0.00413162 0)
(1.00321 0.00412631 0)
(1.00069 0.00536052 0)
(0.997048 0.00882719 0)
(0.995216 -0.000710203 0)
(1.01277 0.00783842 0)
(1.00339 -0.0248649 0)
(0.977683 -0.00591142 0)
(0.996315 0.0138818 0)
(1.01554 0.00957988 0)
(1.00617 -0.00782939 0)
(0.98841 0.00216835 0)
(0.992415 0.00607522 0)
(1.00044 0.0100824 0)
(1.007 0.0160004 0)
(1.01081 0.0121661 0)
(1.01187 0.010833 0)
(1.01172 0.00929913 0)
(1.01358 0.00830066 0)
(1.01179 0.00543986 0)
(1.00765 0.00439089 0)
(1.0039 0.00458845 0)
(1.00216 0.00575972 0)
(0.998987 0.00902186 0)
(0.996136 -0.000752182 0)
(1.01044 0.00752271 0)
(1.005 -0.0240814 0)
(0.97918 -0.00595069 0)
(0.992701 0.0132942 0)
(1.01129 0.00943561 0)
(1.00508 -0.00723812 0)
(0.989234 0.00213097 0)
(0.993594 0.00601593 0)
(1.00099 0.00973842 0)
(1.0067 0.0156581 0)
(1.00997 0.0120605 0)
(1.01089 0.0107232 0)
(1.01069 0.00935229 0)
(1.0127 0.00827011 0)
(1.01109 0.00568744 0)
(1.00752 0.00463064 0)
(1.00436 0.00497182 0)
(1.00333 0.00612069 0)
(1.00075 0.00916699 0)
(0.996993 -0.000779205 0)
(1.00854 0.00718793 0)
(1.00573 -0.0233096 0)
(0.980574 -0.0059333 0)
(0.990627 0.0127718 0)
(1.0086 0.00924469 0)
(1.00449 -0.00671335 0)
(0.989942 0.00205829 0)
(0.994423 0.00595543 0)
(1.00141 0.00941575 0)
(1.00658 0.0153205 0)
(1.0095 0.0119785 0)
(1.01029 0.0106087 0)
(1.01005 0.00941157 0)
(1.01212 0.00824335 0)
(1.0106 0.00589922 0)
(1.0074 0.00486228 0)
(1.0047 0.00528913 0)
(1.00425 0.00643206 0)
(1.00223 0.00926646 0)
(0.997708 -0.000794788 0)
(1.00711 0.00684327 0)
(1.00589 -0.0225457 0)
(0.981729 -0.00588752 0)
(0.989561 0.0122907 0)
(1.00702 0.0090219 0)
(1.00429 -0.00623509 0)
(0.990609 0.00196878 0)
(0.994871 0.00589925 0)
(1.00152 0.00910846 0)
(1.00624 0.0149745 0)
(1.00898 0.011912 0)
(1.00975 0.0104887 0)
(1.00959 0.00946658 0)
(1.01173 0.00822557 0)
(1.01032 0.00608459 0)
(1.00737 0.00509231 0)
(1.00501 0.00555854 0)
(1.00499 0.00669314 0)
(1.00343 0.00932718 0)
(0.998262 -0.000802942 0)
(1.00612 0.00649568 0)
(1.00569 -0.021785 0)
(0.982654 -0.00582606 0)
(0.989106 0.0118343 0)
(1.0062 0.00877411 0)
(1.00432 -0.00578981 0)
(0.991271 0.00187918 0)
(0.995027 0.00585404 0)
(1.00141 0.00881899 0)
(1.00563 0.014616 0)
(1.00833 0.0118505 0)
(1.00917 0.0103588 0)
(1.00922 0.00950673 0)
(1.01144 0.0082124 0)
(1.01018 0.00624894 0)
(1.00743 0.0053205 0)
(1.00535 0.00579399 0)
(1.00562 0.00690956 0)
(1.0044 0.00935871 0)
(0.998659 -0.000807676 0)
(1.00549 0.00614922 0)
(1.00528 -0.0210214 0)
(0.983418 -0.00576211 0)
(0.988985 0.0113863 0)
(1.00588 0.00851025 0)
(1.00443 -0.00536619 0)
(0.991926 0.00180229 0)
(0.994984 0.005823 0)
(1.00121 0.00854995 0)
(1.0049 0.0142473 0)
(1.00761 0.0117829 0)
(1.00859 0.0102143 0)
(1.00891 0.00952436 0)
(1.01121 0.00820025 0)
(1.01013 0.00639096 0)
(1.00756 0.00554587 0)
(1.0057 0.0060025 0)
(1.00616 0.00708698 0)
(1.00519 0.00937724 0)
(0.998905 -0.000811558 0)
(1.00513 0.00580692 0)
(1.00474 -0.0202523 0)
(0.984115 -0.00570215 0)
(0.989022 0.0109354 0)
(1.00585 0.00823484 0)
(1.00455 -0.00495864 0)
(0.992561 0.00174426 0)
(0.994821 0.00580665 0)
(1.00101 0.00829877 0)
(1.00417 0.0138716 0)
(1.00694 0.0117022 0)
(1.00805 0.0100532 0)
(1.00868 0.00951404 0)
(1.01103 0.00818628 0)
(1.01014 0.00650863 0)
(1.0077 0.00577286 0)
(1.00604 0.00619507 0)
(1.00659 0.00722546 0)
(1.00581 0.00939833 0)
(0.999008 -0.000816327 0)
(1.00498 0.00547012 0)
(1.00414 -0.0194791 0)
(0.984828 -0.0056473 0)
(0.989129 0.0104757 0)
(1.00597 0.00795063 0)
(1.00461 -0.00456205 0)
(0.993164 0.0017065 0)
(0.994613 0.00580512 0)
(1.00087 0.00806033 0)
(1.00355 0.01349 0)
(1.00635 0.0116081 0)
(1.0076 0.00987671 0)
(1.00851 0.00947424 0)
(1.01089 0.00816901 0)
(1.01016 0.00660207 0)
(1.00784 0.00600071 0)
(1.00632 0.00638937 0)
(1.00695 0.00732511 0)
(1.00629 0.00941992 0)
(0.998988 -0.000823599 0)
(1.00496 0.00514327 0)
(1.00354 -0.0187027 0)
(0.985602 -0.00559624 0)
(0.989268 0.0100063 0)
(1.0061 0.00766173 0)
(1.0046 -0.00417291 0)
(0.993727 0.00168634 0)
(0.994434 0.00581843 0)
(1.00082 0.00782867 0)
(1.00312 0.0131001 0)
(1.00587 0.0115045 0)
(1.00725 0.00968909 0)
(1.00837 0.00940857 0)
(1.01074 0.00815497 0)
(1.01017 0.00667361 0)
(1.00794 0.00621965 0)
(1.00655 0.00659678 0)
(1.00723 0.00739808 0)
(1.00667 0.00942229 0)
(0.998879 -0.000833955 0)
(1.005 0.00482493 0)
(1.00297 -0.0179266 0)
(0.986431 -0.00554794 0)
(0.989438 0.00952859 0)
(1.00616 0.00737009 0)
(1.00453 -0.00378896 0)
(0.994244 0.0016825 0)
(0.994339 0.00584506 0)
(1.00086 0.00760023 0)
(1.00288 0.0126999 0)
(1.00549 0.0113941 0)
(1.00698 0.0094931 0)
(1.00824 0.0093201 0)
(1.01058 0.00815479 0)
(1.01015 0.0067279 0)
(1.008 0.0064204 0)
(1.00672 0.00681879 0)
(1.00747 0.00746392 0)
(1.00702 0.00938016 0)
(0.998721 -0.000847166 0)
(1.00505 0.00451399 0)
(1.00247 -0.0171556 0)
(0.987272 -0.00549898 0)
(0.989651 0.00904367 0)
(1.00611 0.00707665 0)
(1.00443 -0.00341871 0)
(0.99471 0.00168867 0)
(0.994351 0.00588191 0)
(1.00095 0.00737325 0)
(1.00281 0.012286 0)
(1.00518 0.0112808 0)
(1.00677 0.00929065 0)
(1.00813 0.00920699 0)
(1.01038 0.0081736 0)
(1.01008 0.00677197 0)
(1.00802 0.00659476 0)
(1.00684 0.0070521 0)
(1.00766 0.00754202 0)
(1.00735 0.00928008 0)
(0.998553 -0.000863253 0)
(1.00507 0.00421624 0)
(1.00206 -0.0163932 0)
(0.988072 -0.00544855 0)
(0.989917 0.00855571 0)
(1.00593 0.00678587 0)
(1.00431 -0.00306209 0)
(0.995124 0.00169551 0)
(0.994463 0.00592891 0)
(1.00108 0.00715034 0)
(1.00287 0.0118531 0)
(1.00492 0.0111727 0)
(1.00658 0.0090906 0)
(1.00802 0.00906363 0)
(1.01016 0.0082053 0)
(1.00997 0.00681398 0)
(1.008 0.00673523 0)
(1.00691 0.0072886 0)
(1.00781 0.0076527 0)
(1.00767 0.00913416 0)
(0.998406 -0.000881953 0)
(1.00503 0.00393028 0)
(1.00176 -0.0156433 0)
(0.988795 -0.00539548 0)
(0.990229 0.00806852 0)
(1.00567 0.00649503 0)
(1.00421 -0.00271021 0)
(0.995493 0.00169661 0)
(0.994647 0.00598414 0)
(1.00122 0.00694073 0)
(1.003 0.0113995 0)
(1.00469 0.0110721 0)
(1.00639 0.00890686 0)
(1.00793 0.00888901 0)
(1.00991 0.0082427 0)
(1.00983 0.00686283 0)
(1.00796 0.00683449 0)
(1.00695 0.00751156 0)
(1.0079 0.00781228 0)
(1.00797 0.00897547 0)
(0.998298 -0.000902557 0)
(1.00492 0.00365739 0)
(1.00156 -0.0149077 0)
(0.989436 -0.0053347 0)
(0.990568 0.0075813 0)
(1.00534 0.00620326 0)
(1.0041 -0.00236226 0)
(0.995827 0.00168783 0)
(0.994869 0.00603767 0)
(1.00138 0.00675001 0)
(1.00317 0.0109294 0)
(1.00449 0.0109741 0)
(1.00619 0.00875304 0)
(1.00785 0.00868791 0)
(1.00966 0.00828437 0)
(1.00967 0.00693381 0)
(1.0079 0.00689469 0)
(1.00698 0.00769023 0)
(1.00795 0.0080132 0)
(1.00824 0.00885919 0)
(0.998238 -0.000923834 0)
(1.00475 0.0033945 0)
(1.00146 -0.0141845 0)
(0.990014 -0.00526738 0)
(0.990913 0.00709595 0)
(1.00498 0.00591223 0)
(1.00398 -0.00202476 0)
(0.996138 0.00166548 0)
(0.995099 0.00607917 0)
(1.00154 0.00657743 0)
(1.00335 0.0104438 0)
(1.00432 0.0108668 0)
(1.00596 0.0086415 0)
(1.00777 0.00846674 0)
(1.0094 0.00831768 0)
(1.00948 0.00703724 0)
(1.00784 0.00693771 0)
(1.007 0.00780264 0)
(1.00796 0.00821278 0)
(1.00844 0.00883205 0)
(0.998221 -0.000946872 0)
(1.00453 0.0031429 0)
(1.00141 -0.0134771 0)
(0.990559 -0.00519333 0)
(0.991247 0.00661888 0)
(1.0046 0.00561858 0)
(1.00384 -0.00170046 0)
(0.996436 0.00163236 0)
(0.995317 0.00610369 0)
(1.0017 0.00642777 0)
(1.00354 0.00994123 0)
(1.00417 0.0107331 0)
(1.00571 0.00857316 0)
(1.00771 0.00823847 0)
(1.00918 0.00832562 0)
(1.00929 0.00716605 0)
(1.00777 0.00698643 0)
(1.00704 0.00786497 0)
(1.00796 0.00836551 0)
(1.00859 0.0088827 0)
(0.998241 -0.000971013 0)
(1.00427 0.00290205 0)
(1.00138 -0.0127858 0)
(0.9911 -0.00510913 0)
(0.991568 0.00614705 0)
(1.00423 0.00531813 0)
(1.00368 -0.00137731 0)
(0.996727 0.00160164 0)
(0.995517 0.00610719 0)
(1.00184 0.00631239 0)
(1.00372 0.00943216 0)
(1.00404 0.0105672 0)
(1.00544 0.00853777 0)
(1.00764 0.00801493 0)
(1.00898 0.00830584 0)
(1.0091 0.00731052 0)
(1.00771 0.00704016 0)
(1.00708 0.00790397 0)
(1.00796 0.00846491 0)
(1.00868 0.00895241 0)
(0.998288 -0.000994729 0)
(1.004 0.00266796 0)
(1.00134 -0.0121093 0)
(0.991651 -0.00501728 0)
(0.991878 0.00568015 0)
(1.00387 0.00501188 0)
(1.0035 -0.00106052 0)
(0.997009 0.00157644 0)
(0.995698 0.00608065 0)
(1.00196 0.00623015 0)
(1.00389 0.00893337 0)
(1.00393 0.010375 0)
(1.00517 0.00853179 0)
(1.00757 0.00780178 0)
(1.00882 0.0082618 0)
(1.0089 0.00747253 0)
(1.00764 0.00709118 0)
(1.00713 0.00791723 0)
(1.00797 0.00853815 0)
(1.00875 0.00899576 0)
(0.998354 -0.00101792 0)
(1.00372 0.00244152 0)
(1.00127 -0.0114478 0)
(0.992215 -0.00492551 0)
(0.992186 0.00523376 0)
(1.00353 0.00469395 0)
(1.0033 -0.000765903 0)
(0.99728 0.00155716 0)
(0.995866 0.00601951 0)
(1.00206 0.00616536 0)
(1.00406 0.00845196 0)
(1.00385 0.0101518 0)
(1.00488 0.0085519 0)
(1.00748 0.00760306 0)
(1.0087 0.00818781 0)
(1.0087 0.00765533 0)
(1.00756 0.00715783 0)
(1.00718 0.00788602 0)
(1.00799 0.00860486 0)
(1.00879 0.00902831 0)
(0.998432 -0.00103904 0)
(1.00344 0.00222257 0)
(1.00118 -0.0107929 0)
(0.992785 -0.00483876 0)
(0.992494 0.00481155 0)
(1.0032 0.00436275 0)
(1.00309 -0.000491006 0)
(0.99754 0.00154784 0)
(0.996026 0.00592637 0)
(1.00212 0.00610461 0)
(1.00422 0.00799122 0)
(1.00378 0.00989032 0)
(1.00459 0.00859082 0)
(1.00737 0.00742622 0)
(1.00861 0.00806913 0)
(1.00851 0.00784308 0)
(1.00746 0.00726899 0)
(1.00723 0.00780725 0)
(1.00802 0.00863483 0)
(1.0088 0.00908032 0)
(0.998515 -0.00105909 0)
(1.00316 0.00201219 0)
(1.00106 -0.0101437 0)
(0.993352 -0.00476809 0)
(0.992804 0.00441546 0)
(1.00289 0.00403356 0)
(1.00289 -0.000238099 0)
(0.997784 0.00155492 0)
(0.99618 0.00581042 0)
(1.00215 0.00604407 0)
(1.00437 0.00755626 0)
(1.00374 0.00958973 0)
(1.00428 0.00864024 0)
(1.00723 0.00728751 0)
(1.00856 0.00790127 0)
(1.00834 0.00800647 0)
(1.00732 0.007443 0)
(1.00727 0.00771816 0)
(1.00808 0.00858526 0)
(1.0088 0.00915132 0)
(0.998601 -0.00107445 0)
(1.00288 0.00179801 0)
(1.00092 -0.00949298 0)
(0.993907 -0.00471938 0)
(0.993115 0.00404911 0)
(1.00259 0.00371145 0)
(1.00268 -1.91105e-05 0)
(0.998013 0.00158545 0)
(0.99633 0.00568021 0)
(1.00216 0.00598459 0)
(1.0045 0.00715677 0)
(1.00371 0.00925645 0)
(1.00398 0.00868782 0)
(1.00705 0.00719845 0)
(1.00853 0.00769782 0)
(1.00819 0.00811696 0)
(1.00716 0.007671 0)
(1.00728 0.00767291 0)
(1.00815 0.00845408 0)
(1.00881 0.00919333 0)
(0.998684 -0.00108387 0)
(1.00262 0.00158389 0)
(1.00076 -0.0088348 0)
(0.994445 -0.00469564 0)
(0.993425 0.00370774 0)
(1.00231 0.00340382 0)
(1.00248 0.000168947 0)
(0.998226 0.00163374 0)
(0.996476 0.00553866 0)
(1.00213 0.00591782 0)
(1.00462 0.00679569 0)
(1.00372 0.00890121 0)
(1.00366 0.00872527 0)
(1.00683 0.00715812 0)
(1.00851 0.0074719 0)
(1.00809 0.00815221 0)
(1.00696 0.00791748 0)
(1.00723 0.00769963 0)
(1.00824 0.00828232 0)
(1.00884 0.00915013 0)
(0.998765 -0.00108719 0)
(1.00237 0.00136538 0)
(1.00059 -0.00817091 0)
(0.99496 -0.00469876 0)
(0.993735 0.00337821 0)
(1.00203 0.00311936 0)
(1.00229 0.000312639 0)
(0.998422 0.00168408 0)
(0.996616 0.00539945 0)
(1.00208 0.00583729 0)
(1.00471 0.00645744 0)
(1.00375 0.00852247 0)
(1.00336 0.00874588 0)
(1.00656 0.00716893 0)
(1.00849 0.00724178 0)
(1.00804 0.00810672 0)
(1.00677 0.00815503 0)
(1.00712 0.00780142 0)
(1.00831 0.00812712 0)
(1.0089 0.00901962 0)
(0.998841 -0.00108244 0)
(1.00212 0.00113565 0)
(1.00042 -0.00750529 0)
(0.995449 -0.00471619 0)
(0.994044 0.00305367 0)
(1.00176 0.00286992 0)
(1.0021 0.000406404 0)
(0.998606 0.00172038 0)
(0.996747 0.00526655 0)
(1.00201 0.00575141 0)
(1.00477 0.00613818 0)
(1.0038 0.00812017 0)
(1.00307 0.00873908 0)
(1.00624 0.00722996 0)
(1.00844 0.00702628 0)
(1.00803 0.00797428 0)
(1.00659 0.00835557 0)
(1.00694 0.00796244 0)
(1.00833 0.00801438 0)
(1.009 0.00882346 0)
(0.998913 -0.00106922 0)
(1.0019 0.000892658 0)
(1.00024 -0.00683625 0)
(0.995909 -0.0047265 0)
(0.994354 0.00272421 0)
(1.00149 0.00266565 0)
(1.00191 0.000474298 0)
(0.998778 0.00173762 0)
(0.996873 0.00513503 0)
(1.00191 0.0056723 0)
(1.0048 0.0058465 0)
(1.00389 0.00769558 0)
(1.00282 0.00868954 0)
(1.00587 0.00733471 0)
(1.00835 0.00685235 0)
(1.00807 0.00776065 0)
(1.00644 0.00848995 0)
(1.00671 0.00817076 0)
(1.00828 0.00795965 0)
(1.00911 0.00858417 0)
(0.99898 -0.00104439 0)
(1.00169 0.000633542 0)
(1.00005 -0.00617421 0)
(0.996337 -0.00471199 0)
(0.994667 0.00237279 0)
(1.00123 0.00250233 0)
(1.00173 0.000528879 0)
(0.998941 0.00173644 0)
(0.996994 0.00500194 0)
(1.00178 0.00560207 0)
(1.0048 0.00558833 0)
(1.00399 0.00724963 0)
(1.0026 0.00858298 0)
(1.00546 0.0074708 0)
(1.0082 0.00674943 0)
(1.00814 0.00749123 0)
(1.00636 0.00852564 0)
(1.00645 0.00840286 0)
(1.00815 0.00798533 0)
(1.0092 0.00833223 0)
(0.999042 -0.00101046 0)
(1.00149 0.000363934 0)
(0.999864 -0.00553141 0)
(0.996729 -0.00466266 0)
(0.994985 0.00198703 0)
(1.00098 0.00236958 0)
(1.00153 0.000575389 0)
(0.999094 0.00170753 0)
(0.997115 0.00486296 0)
(1.00164 0.00554232 0)
(1.00475 0.00537559 0)
(1.00411 0.00679138 0)
(1.00245 0.00841098 0)
(1.00504 0.00761136 0)
(1.00798 0.00672515 0)
(1.00821 0.00720558 0)
(1.00634 0.00844073 0)
(1.00618 0.00860299 0)
(1.00791 0.00809571 0)
(1.00924 0.00812049 0)
(0.999101 -0.000967141 0)
(1.00132 8.73177e-05 0)
(0.999682 -0.00492109 0)
(0.997081 -0.00455874 0)
(0.995308 0.00156155 0)
(1.00074 0.00224855 0)
(1.00134 0.000629991 0)
(0.999238 0.00164309 0)
(0.997239 0.00470818 0)
(1.00148 0.00549126 0)
(1.00465 0.00521547 0)
(1.00423 0.0063416 0)
(1.00235 0.00817242 0)
(1.00462 0.0077242 0)
(1.00769 0.00676595 0)
(1.00826 0.00695311 0)
(1.0064 0.00825794 0)
(1.00594 0.00872241 0)
(1.00759 0.00825483 0)
(1.00917 0.00800353 0)
(0.999156 -0.000916107 0)
(1.00117 -0.000185548 0)
(0.999509 -0.00435843 0)
(0.997388 -0.00438988 0)
(0.995634 0.00111539 0)
(1.00054 0.00212474 0)
(1.00113 0.000706764 0)
(0.999368 0.00155568 0)
(0.997371 0.00452734 0)
(1.00132 0.00543864 0)
(1.00451 0.00510542 0)
(1.00434 0.00593104 0)
(1.00231 0.00787963 0)
(1.00423 0.00778514 0)
(1.00733 0.00684117 0)
(1.00827 0.00675346 0)
(1.00651 0.00801129 0)
(1.00576 0.00874323 0)
(1.00722 0.00839676 0)
(1.00899 0.00798445 0)
(0.999208 -0.000859945 0)
(1.00104 -0.000451541 0)
(0.999351 -0.00384541 0)
(0.997648 -0.00415793 0)
(0.99596 0.000667793 0)
(1.00036 0.00197887 0)
(1.00092 0.000819519 0)
(0.999483 0.00148104 0)
(0.997512 0.00431998 0)
(1.00115 0.00537305 0)
(1.00433 0.0050422 0)
(1.00443 0.00557409 0)
(1.00232 0.00754505 0)
(1.00386 0.00778261 0)
(1.00692 0.00693015 0)
(1.00822 0.0066129 0)
(1.00665 0.00772971 0)
(1.00565 0.00867775 0)
(1.00685 0.00848676 0)
(1.0087 0.00801414 0)
(0.999256 -0.000798276 0)
(1.00093 -0.00070266 0)
(0.999215 -0.00340362 0)
(0.997862 -0.00386552 0)
(0.99628 0.000251608 0)
(1.00022 0.00179132 0)
(1.00071 0.000955388 0)
(0.999575 0.00143448 0)
(0.997662 0.00409212 0)
(1.00101 0.00527559 0)
(1.00412 0.0050272 0)
(1.0045 0.00528426 0)
(1.00238 0.00718178 0)
(1.00355 0.00770565 0)
(1.00648 0.00701005 0)
(1.0081 0.00653039 0)
(1.00681 0.00742975 0)
(1.0056 0.00852712 0)
(1.00648 0.00852943 0)
(1.00834 0.00803983 0)
(0.999303 -0.000735647 0)
(1.00084 -0.000928922 0)
(0.999106 -0.00303865 0)
(0.998037 -0.00352763 0)
(0.996584 -0.000102197 0)
(1.00013 0.00155939 0)
(1.00051 0.00109767 0)
(0.999646 0.00141967 0)
(0.997818 0.00385811 0)
(1.00088 0.0051313 0)
(1.00387 0.00502904 0)
(1.00452 0.00507251 0)
(1.00247 0.00681849 0)
(1.00329 0.00755818 0)
(1.00603 0.00705227 0)
(1.0079 0.0064895 0)
(1.00694 0.00713499 0)
(1.00563 0.00828076 0)
(1.00615 0.00852546 0)
(1.00794 0.00804397 0)
(0.999347 -0.000675923 0)
(1.00076 -0.00112561 0)
(0.999029 -0.00274491 0)
(0.998177 -0.00315898 0)
(0.996866 -0.000386405 0)
(1.00009 0.00128094 0)
(1.00034 0.00123083 0)
(0.999692 0.00146071 0)
(0.997975 0.00364033 0)
(1.00078 0.00493994 0)
(1.00362 0.00500148 0)
(1.00451 0.00492396 0)
(1.00257 0.0064804 0)
(1.00309 0.00736244 0)
(1.00558 0.00704237 0)
(1.00764 0.00645997 0)
(1.00704 0.00688227 0)
(1.00572 0.00796374 0)
(1.00587 0.00846027 0)
(1.00751 0.00804055 0)
(0.99939 -0.000621485 0)
(1.0007 -0.00128158 0)
(0.998988 -0.00253269 0)
(0.998292 -0.00277935 0)
(0.997117 -0.000582021 0)
(1.00008 0.00097074 0)
(1.0002 0.00132173 0)
(0.999721 0.00155612 0)
(0.99812 0.00346412 0)
(1.00071 0.00471627 0)
(1.00337 0.00493845 0)
(1.00446 0.00480728 0)
(1.00268 0.00617306 0)
(1.00294 0.00713614 0)
(1.00516 0.00698396 0)
(1.00733 0.00641287 0)
(1.00707 0.00667802 0)
(1.00586 0.00762269 0)
(1.00567 0.00831625 0)
(1.00708 0.00802998 0)
(0.999433 -0.000576198 0)
(1.00065 -0.00139351 0)
(0.998981 -0.00238979 0)
(0.998394 -0.00241047 0)
(0.997331 -0.000689082 0)
(1.00011 0.000662836 0)
(1.00011 0.00135221 0)
(0.999741 0.00167862 0)
(0.998247 0.00334007 0)
(1.00067 0.00447944 0)
(1.00314 0.00483962 0)
(1.00438 0.00470003 0)
(1.00278 0.005891 0)
(1.00283 0.00689125 0)
(1.00476 0.00690336 0)
(1.007 0.00635528 0)
(1.00706 0.00650632 0)
(1.00601 0.00729007 0)
(1.00555 0.00809145 0)
(1.00667 0.00798273 0)
(0.999475 -0.000540997 0)
(1.0006 -0.00146163 0)
(0.999009 -0.00230507 0)
(0.99849 -0.00207282 0)
(0.997506 -0.000705711 0)
(1.00017 0.000384729 0)
(1.00007 0.00130221 0)
(0.999767 0.00180105 0)
(0.998351 0.00328553 0)
(1.00063 0.00426381 0)
(1.00293 0.00469939 0)
(1.00429 0.00459212 0)
(1.00288 0.00563341 0)
(1.00277 0.00663247 0)
(1.00439 0.00680802 0)
(1.00664 0.00630393 0)
(1.00698 0.00635944 0)
(1.00615 0.00697745 0)
(1.00552 0.0078129 0)
(1.00631 0.00787879 0)
(0.999516 -0.000519118 0)
(1.00056 -0.00147648 0)
(0.999065 -0.00225827 0)
(0.998593 -0.00180368 0)
(0.997646 -0.000652403 0)
(1.00023 0.0001551 0)
(1.00009 0.00116893 0)
(0.99982 0.00188207 0)
(0.998438 0.00329549 0)
(1.00059 0.00409521 0)
(1.00274 0.00453762 0)
(1.0042 0.00446322 0)
(1.00297 0.00539548 0)
(1.00274 0.00636586 0)
(1.00406 0.00668683 0)
(1.00628 0.0062483 0)
(1.00686 0.00623695 0)
(1.00628 0.00668862 0)
(1.00554 0.00750605 0)
(1.00602 0.00771379 0)
(0.999558 -0.000514039 0)
(1.00052 -0.00146842 0)
(0.999139 -0.00222624 0)
(0.998709 -0.00158173 0)
(0.997758 -0.000532779 0)
(1.00028 8.6517e-06 0)
(1.00015 0.000999841 0)
(0.999917 0.00191157 0)
(0.998518 0.00334372 0)
(1.00054 0.00398134 0)
(1.00256 0.00438938 0)
(1.00411 0.00431244 0)
(1.00306 0.00516147 0)
(1.00276 0.00609804 0)
(1.00379 0.00653969 0)
(1.00592 0.00616945 0)
(1.00669 0.00612873 0)
(1.00636 0.00642636 0)
(1.00562 0.00718014 0)
(1.00583 0.00747977 0)
(0.999597 -0.000496968 0)
(1.00048 -0.00141145 0)
(0.999235 -0.00222939 0)
(0.998846 -0.00146258 0)
(0.99785 -0.00039528 0)
(1.00031 -7.3683e-05 0)
(1.00025 0.00081134 0)
(1.00007 0.0018604 0)
(0.998605 0.00338542 0)
(1.00048 0.00391674 0)
(1.00238 0.00426151 0)
(1.00402 0.00416184 0)
(1.00315 0.00492216 0)
(1.00281 0.00581763 0)
(1.00356 0.00637456 0)
(1.00557 0.00607084 0)
(1.00648 0.00602036 0)
(1.0064 0.0061983 0)
(1.0057 0.00686368 0)
(1.00572 0.00720138 0)
(0.99964 -0.000542638 0)
(1.00042 -0.00132002 0)
(0.99932 -0.00213527 0)
(0.999005 -0.00138293 0)
(0.997939 -0.000264916 0)
(1.00031 -6.09451e-05 0)
(1.00035 0.000662136 0)
(1.00027 0.00172843 0)
(0.998721 0.00340016 0)
(1.00041 0.00389637 0)
(1.00219 0.0041641 0)
(1.00391 0.00403061 0)
(1.00324 0.00469821 0)
(1.0029 0.00552049 0)
(1.00338 0.0061865 0)
(1.00524 0.00596544 0)
(1.00626 0.00590578 0)
(1.00641 0.00599171 0)
(1.00578 0.00656896 0)
(1.00567 0.00690502 0)
(0.999674 -0.000524143 0)
(1.00039 -0.00128233 0)
(0.99941 -0.00217893 0)
(0.999168 -0.00135385 0)
(0.998031 -7.89512e-05 0)
(1.0003 5.39669e-05 0)
(1.00044 0.000573862 0)
(1.00051 0.00152077 0)
(0.998881 0.00333279 0)
(1.00033 0.00387349 0)
(1.00199 0.004092 0)
(1.00379 0.00390553 0)
(1.0033 0.00449527 0)
(1.00301 0.00522154 0)
(1.00326 0.00596029 0)
(1.00493 0.00584573 0)
(1.006 0.00579103 0)
(1.00636 0.00579218 0)
(1.00585 0.00629147 0)
(1.00565 0.00661308 0)
(0.999717 -0.000552685 0)
(1.00032 -0.00119009 0)
(0.999495 -0.00209715 0)
(0.999398 -0.00134726 0)
(0.998154 8.30294e-05 0)
(1.00026 0.00020985 0)
(1.00049 0.000570714 0)
(1.00077 0.00130906 0)
(0.999103 0.0031682 0)
(1.00028 0.00383193 0)
(1.00178 0.0040541 0)
(1.00366 0.00380059 0)
(1.00336 0.00431021 0)
(1.00315 0.00494221 0)
(1.00321 0.00571274 0)
(1.00468 0.00569661 0)
(1.00574 0.00567964 0)
(1.00629 0.0056056 0)
(1.00591 0.00602265 0)
(1.00566 0.00633125 0)
(0.999744 -0.000577418 0)
(1.00029 -0.00107444 0)
(0.999558 -0.00192377 0)
(0.999593 -0.00137212 0)
(0.998291 0.000110306 0)
(1.00021 0.000338253 0)
(1.0005 0.000624225 0)
(1.00101 0.00112943 0)
(0.999368 0.00291506 0)
(1.00028 0.00372992 0)
(1.00157 0.00401931 0)
(1.0035 0.00371561 0)
(1.00339 0.00413265 0)
(1.00328 0.00466547 0)
(1.0032 0.00544984 0)
(1.00446 0.00550686 0)
(1.00548 0.0055457 0)
(1.00617 0.00542761 0)
(1.00595 0.00574583 0)
(1.00568 0.00603577 0)
(0.99978 -0.000562448 0)
(1.00023 -0.000990554 0)
(0.999593 -0.00179219 0)
(0.999803 -0.00136648 0)
(0.998459 0.00010534 0)
(1.00017 0.000443758 0)
(1.00048 0.000712498 0)
(1.00121 0.0010017 0)
(0.999661 0.00262901 0)
(1.00033 0.00355621 0)
(1.00137 0.00396522 0)
(1.00331 0.00364595 0)
(1.00339 0.00397503 0)
(1.00341 0.00439173 0)
(1.00322 0.005178 0)
(1.00429 0.00530433 0)
(1.00522 0.00538909 0)
(1.00601 0.00526647 0)
(1.00595 0.00548686 0)
(1.00571 0.00573094 0)
(0.999802 -0.000566093 0)
(1.00021 -0.000916571 0)
(0.99962 -0.00158999 0)
(0.999975 -0.00134039 0)
(0.99863 6.8983e-05 0)
(1.00015 0.000521328 0)
(1.00042 0.000828321 0)
(1.00136 0.000949111 0)
(0.999956 0.00237026 0)
(1.00044 0.00333351 0)
(1.0012 0.00389124 0)
(1.0031 0.00358464 0)
(1.00334 0.00384899 0)
(1.00352 0.00413941 0)
(1.00328 0.0048877 0)
(1.00415 0.0050846 0)
(1.00499 0.00520922 0)
(1.00582 0.00509679 0)
(1.0059 0.00525627 0)
(1.00574 0.00542315 0)
(0.999827 -0.000565416 0)
(1.00016 -0.000808156 0)
(0.999619 -0.00138569 0)
(1.00013 -0.00131058 0)
(0.998822 6.23954e-06 0)
(1.00015 0.000565164 0)
(1.00035 0.000936859 0)
(1.00146 0.000949692 0)
(1.00023 0.00214821 0)
(1.00058 0.00306985 0)
(1.00107 0.00377744 0)
(1.00289 0.00351942 0)
(1.00324 0.00374369 0)
(1.00358 0.003938 0)
(1.00335 0.00460856 0)
(1.00406 0.00485356 0)
(1.00477 0.00503779 0)
(1.00562 0.00492979 0)
(1.0058 0.00507195 0)
(1.00574 0.00515494 0)
(0.999844 -0.000531706 0)
(1.00017 -0.000800355 0)
(0.999601 -0.00123271 0)
(1.00023 -0.00119773 0)
(0.999006 -1.40229e-05 0)
(1.00017 0.000584992 0)
(1.00028 0.00103225 0)
(1.0015 0.000987963 0)
(1.00045 0.00197941 0)
(1.00076 0.00280421 0)
(1.00099 0.00362188 0)