/*--------------------------------*- C++ -*----------------------------------*\
| =========                 |                                                 |
| \\      /  F ield         | OpenFOAM: The Open Source CFD Toolbox           |
|  \\    /   O peration     | Version:  2506                                  |
|   \\  /    A nd           | Website:  www.openfoam.com                      |
|    \\/     M anipulation  |                                                 |
\*---------------------------------------------------------------------------*/
FoamFile
{
    version     2.0;
    format      ascii;
    arch        "LSB;label=32;scalar=64";
    class       volScalarField;
    location    "9.7";
    object      p;
}
// * * * * * * * * * * * * * * * * * * * * * * * * * * * * * * * * * * * * * //

dimensions      [0 2 -2 0 0 0 0];

internalField   nonuniform List<scalar> 
9600
(
2.18597e-10
-0.00605183
-0.00432433
-0.00343191
-0.00194931
0.00279864
-0.00343583
-0.00857348
-0.00726971
-0.00478686
-0.00536841
-0.0054108
-0.0054995
-0.00562271
-0.00481397
-0.00518395
-0.00252547
-0.001328
0.000959609
0.00439034
3.1953e-06
-0.00605397
-0.00433215
-0.0034275
-0.00194018
0.00275939
-0.00340984
-0.00857158
-0.00727267
-0.00476092
-0.00540256
-0.0054129
-0.00549191
-0.00563246
-0.00481233
-0.00521765
-0.0025231
-0.0016639
0.00100258
0.00386628
7.20219e-06
-0.00605784
-0.00433894
-0.00341965
-0.00193771
0.0027076
-0.00336037
-0.00856659
-0.00726581
-0.00472485
-0.00544846
-0.00540981
-0.0054843
-0.00565224
-0.00481941
-0.00526008
-0.00253409
-0.00182736
0.00100048
0.00321963
6.91376e-06
-0.00606311
-0.00434348
-0.00341328
-0.00194227
0.00263439
-0.00331997
-0.00855347
-0.00724708
-0.00469759
-0.00549962
-0.00541268
-0.00548127
-0.0056763
-0.00483431
-0.00530089
-0.00255517
-0.00195358
0.000919259
0.00268997
1.32732e-06
-0.00606999
-0.00434699
-0.00340866
-0.00195116
0.00253508
-0.00329348
-0.00852796
-0.00721676
-0.00468425
-0.00555702
-0.0054268
-0.00548045
-0.0057025
-0.00485148
-0.00534479
-0.0025781
-0.00211873
0.000804088
0.00222387
-8.95698e-06
-0.00607835
-0.00434971
-0.00340527
-0.00196412
0.00240757
-0.00327654
-0.00848881
-0.00717887
-0.00468577
-0.00562181
-0.00544952
-0.00548038
-0.00572882
-0.00487012
-0.00539264
-0.0026041
-0.00228796
0.000663523
0.00178723
-2.32615e-05
-0.00608789
-0.00435191
-0.0034031
-0.00198169
0.00225463
-0.00326539
-0.00843976
-0.00713976
-0.00469972
-0.00569239
-0.00547668
-0.00548058
-0.00575411
-0.0048892
-0.00544424
-0.00263625
-0.00245423
0.000486798
0.00137461
-4.09531e-05
-0.00609805
-0.00435384
-0.00340238
-0.00200429
0.00208117
-0.00325819
-0.00838514
-0.0071033
-0.00472102
-0.0057669
-0.00550644
-0.00548058
-0.00577993
-0.00490814
-0.00549948
-0.00267673
-0.00261304
0.00026965
0.000986076
-6.13431e-05
-0.00610831
-0.00435571
-0.00340339
-0.00203215
0.00189226
-0.00325314
-0.00832757
-0.00707014
-0.00474525
-0.00584476
-0.0055384
-0.00548039
-0.00580927
-0.00492772
-0.00555659
-0.00272747
-0.00276049
1.20159e-05
0.000619486
-8.37896e-05
-0.00611836
-0.00435766
-0.00340639
-0.00206525
0.0016922
-0.00324832
-0.00826816
-0.00703965
-0.00476982
-0.00592577
-0.0055728
-0.00548035
-0.00584403
-0.00494887
-0.0056126
-0.00279092
-0.00289499
-0.000284655
0.000293625
-0.000107819
-0.00612813
-0.00435989
-0.00341152
-0.00210326
0.00148405
-0.00324253
-0.00820736
-0.00701134
-0.00479342
-0.00600983
-0.00561015
-0.00548037
-0.0058847
-0.00497229
-0.0056647
-0.00287011
-0.00301739
-0.000618097
-5.42763e-05
-0.000133142
-0.00613774
-0.0043626
-0.00341883
-0.00214565
0.00126976
-0.00323554
-0.00814545
-0.00698521
-0.00481539
-0.00609696
-0.00565089
-0.0054803
-0.00593104
-0.00499873
-0.00571134
-0.002968
-0.0031301
-0.00098411
-0.000403468
-0.000159617
-0.00614738
-0.0043661
-0.00342818
-0.00219177
0.00105049
-0.00322786
-0.00808261
-0.00696174
-0.0048354
-0.00618714
-0.00569558
-0.00548038
-0.00598214
-0.00502955
-0.00575234
-0.00308634
-0.00323652
-0.00137644
-0.000761054
-0.000187206
-0.00615732
-0.00437067
-0.00343934
-0.00224107
0.000827064
-0.00322031
-0.00801924
-0.00694158
-0.00485307
-0.00628028
-0.00574494
-0.00548086
-0.00603681
-0.00506687
-0.0057881
-0.00322532
-0.00334149
-0.00178878
-0.00113333
-0.000215957
-0.00616781
-0.0043766
-0.00345204
-0.00229321
0.00060014
-0.00321381
-0.00795577
-0.00692531
-0.00486796
-0.00637635
-0.00579959
-0.0054818
-0.0060944
-0.00511263
-0.00581974
-0.00338432
-0.00345051
-0.00221529
-0.00152389
-0.000245974
-0.00617902
-0.00438424
-0.00346605
-0.00234801
0.000370239
-0.00320924
-0.00789252
-0.00691344
-0.00487976
-0.00647526
-0.00586004
-0.0054834
-0.00615436
-0.00516815
-0.00584967
-0.00356227
-0.003568
-0.00264991
-0.00193441
-0.000277396
-0.00619108
-0.00439391
-0.00348112
-0.00240551
0.000137806
-0.00320742
-0.0078307
-0.00690653
-0.0048883
-0.00657653
-0.00592699
-0.00548594
-0.00621604
-0.00523426
-0.00588091
-0.00375756
-0.00369668
-0.00308765
-0.00236617
-0.000310376
-0.00620399
-0.00440596
-0.00349706
-0.00246588
-9.66755e-05
-0.00320909
-0.00776749
-0.00690526
-0.00489338
-0.00667951
-0.00600129
-0.0054894
-0.00627931
-0.00531084
-0.00591589
-0.00396925
-0.00383836
-0.00352436
-0.00282016
-0.000345075
-0.00621765
-0.00442075
-0.00351366
-0.00252937
-0.000332619
-0.00321507
-0.00770427
-0.00691023
-0.00489494
-0.00678351
-0.00608377
-0.0054935
-0.0063446
-0.00539744
-0.00595596
-0.00419708
-0.0039946
-0.00395573
-0.00329689
-0.000381674
-0.00623185
-0.00443864
-0.00353075
-0.00259629
-0.000569352
-0.00322619
-0.00764123
-0.00692192
-0.0048932
-0.0068875
-0.0061754
-0.00549798
-0.00641254
-0.00549407
-0.00600152
-0.00444108
-0.00416647
-0.00437733
-0.0037967
-0.000420387
-0.00624631
-0.00446004
-0.0035482
-0.00266695
-0.000806127
-0.00324323
-0.00757846
-0.00694076
-0.00488871
-0.00698999
-0.00627747
-0.00550242
-0.00648364
-0.00560147
-0.00605238
-0.00470209
-0.00435523
-0.00478324
-0.0043192
-0.000461463
-0.00626071
-0.00448537
-0.00356594
-0.00274175
-0.00104216
-0.00326689
-0.00751595
-0.00696732
-0.00488229
-0.00708927
-0.00639165
-0.00550627
-0.00655783
-0.00572166
-0.00610722
-0.00498014
-0.00456432
-0.00516647
-0.00486149
-0.000505187
-0.00627468
-0.00451513
-0.00358389
-0.00282115
-0.0012768
-0.00329775
-0.00745369
-0.00700202
-0.0048751
-0.00718333
-0.00651945
-0.00550965
-0.00663479
-0.00585727
-0.00616353
-0.00527314
-0.0047996
-0.00552165
-0.00541669
-0.000551887
-0.00628788
-0.00454982
-0.00360196
-0.00290555
-0.00150947
-0.00333639
-0.0073917
-0.00704499
-0.00486901
-0.00726969
-0.00666213
-0.00551407
-0.00671301
-0.00601062
-0.0062202
-0.0055772
-0.00506817
-0.00584673
-0.00597317
-0.000601913
-0.00629991
-0.00458998
-0.0036201
-0.00299536
-0.00173959
-0.00338331
-0.00733019
-0.0070961
-0.00486621
-0.00734594
-0.00682072
-0.00552138
-0.00678929
-0.00618543
-0.00627827
-0.00588562
-0.00537709
-0.006144
-0.00651443
-0.000655655
-0.00631036
-0.0046362
-0.00363825
-0.0030909
-0.00196678
-0.00343883
-0.00726973
-0.00715479
-0.00486876
-0.00741032
-0.00699591
-0.00553371
-0.00686029
-0.00638504
-0.00634122
-0.00618953
-0.00573004
-0.0064225
-0.00702109
-0.000713543
-0.0063188
-0.00468908
-0.00365641
-0.00319231
-0.00219098
-0.00350311
-0.00721107
-0.00721974
-0.00487874
-0.00746149
-0.00718747
-0.00555455
-0.0069227
-0.0066105
-0.0064157
-0.00647869
-0.00612507
-0.00669911
-0.00747558
-0.00077604
-0.00632479
-0.00474922
-0.00367458
-0.00329967
-0.00241218
-0.00357607
-0.00715523
-0.00728951
-0.00489884
-0.00749856
-0.00739351
-0.00558868
-0.0069733
-0.00686132
-0.0065097
-0.00674349
-0.00655659
-0.00699505
-0.00786785
-0.000843653
-0.00632785
-0.0048172
-0.00369288
-0.00341293
-0.00263067
-0.00365699
-0.00710335
-0.00736294
-0.00493166
-0.00752121
-0.00761107
-0.00564144
-0.00700944
-0.00713516
-0.00663253
-0.00697758
-0.00701288
-0.00733062
-0.00820095
-0.000916936
-0.00632749
-0.00489359
-0.00371155
-0.00353169
-0.00284721
-0.00374483
-0.00705661
-0.00743899
-0.00497907
-0.0075302
-0.00783739
-0.0057178
-0.00702957
-0.00742736
-0.00679455
-0.00717937
-0.00747564
-0.00771947
-0.0084914
-0.000996509
-0.00632321
-0.00497889
-0.00373103
-0.00365534
-0.00306258
-0.00383846
-0.00701654
-0.00751707
-0.00504218
-0.00752713
-0.00806913
-0.005822
-0.00703439
-0.00773065
-0.00700375
-0.00735283
-0.0079248
-0.0081661
-0.00876846
-0.00108301
-0.00631449
-0.00507347
-0.003752
-0.00378295
-0.00327804
-0.00393614
-0.00698434
-0.00759729
-0.00512155
-0.00751401
-0.00830256
-0.0059581
-0.00702616
-0.00803594
-0.00726581
-0.00750737
-0.00833974
-0.00866397
-0.00907069
-0.00117707
-0.00630088
-0.0051776
-0.00377536
-0.00391323
-0.00349545
-0.00403589
-0.00696011
-0.00765001
-0.00521737
-0.00749307
-0.00853489
-0.00612954
-0.00700778
-0.00833378
-0.00758407
-0.00765761
-0.00870283
-0.00919449
-0.00943219
-0.00127938
-0.00628195
-0.0052914
-0.00380216
-0.00404446
-0.00371676
-0.00413666
-0.00694389
-0.00773517
-0.00532976
-0.00746637
-0.00876352
-0.00633884
-0.00698462
-0.00861378
-0.00795685
-0.00782167
-0.00900591
-0.00973054
-0.00986818
-0.00139068
-0.00625732
-0.00541585
-0.0038339
-0.00417422
-0.00394391
-0.00423865
-0.00693465
-0.0078273
-0.00545883
-0.00743571
-0.00898563
-0.00658779
-0.00696392
-0.00886574
-0.00837844
-0.00801756
-0.00924998
-0.0102428
-0.0103731
-0.0015117
-0.0062268
-0.00554808
-0.00387256
-0.00429988
-0.00417849
-0.00434285
-0.00693004
-0.00792728
-0.00560555
-0.00740286
-0.0091982
-0.00687724
-0.00695374
-0.00908078
-0.0088408
-0.00826155
-0.00944351
-0.0107052
-0.0109237
-0.00164308
-0.00619026
-0.00568795
-0.00392039
-0.00441886
-0.00442141
-0.00445121
-0.00692721
-0.00803669
-0.0057719
-0.00736962
-0.00939765
-0.0072072
-0.00696399
-0.00925033
-0.00933177
-0.0085679
-0.0096015
-0.0111013
-0.0114898
-0.00178535
-0.00614777
-0.00583432
-0.00398015
-0.00452877
-0.00467176
-0.00456684
-0.00692332
-0.00815542
-0.00596071
-0.00733858
-0.00957966
-0.00757562
-0.00700611
-0.00936984
-0.00983552
-0.00894669
-0.00974258
-0.0114234
-0.0120429
-0.00193901
-0.00609951
-0.00598529
-0.00405492
-0.00462793
-0.0049281
-0.00469393
-0.00691585
-0.00828092
-0.00617521
-0.00731424
-0.00973861
-0.00797803
-0.00709397
-0.00944015
-0.010331
-0.00940316
-0.00989067
-0.0116669
-0.012559
-0.00210452
-0.00604634
-0.00613829
-0.0041481
-0.00471548
-0.00518752
-0.00483739
-0.00690332
-0.00841052
-0.00641859
-0.00730209
-0.00986881
-0.00840749
-0.00724211
-0.00946836
-0.0107913
-0.00993377
-0.0100784
-0.0118344
-0.0130141
-0.00228222
-0.00598919
-0.00629023
-0.00426296
-0.00479145
-0.00544589
-0.0050023
-0.00688662
-0.00853896
-0.00669235
-0.00730869
-0.0099667
-0.00885428
-0.00746141
-0.00946956
-0.0111903
-0.0105208
-0.01034
-0.011944
-0.0133835
-0.00247221
-0.00592953
-0.00643787
-0.00440219
-0.004857
-0.00569811
-0.00519382
-0.00686865
-0.00865873
-0.00699602
-0.00734247
-0.0100304
-0.00930601
-0.00775858
-0.00946567
-0.0115094
-0.0111349
-0.0106968
-0.0120305
-0.0136507
-0.00267445
-0.00586918
-0.00657804
-0.00456764
-0.00491492
-0.00593801
-0.00541561
-0.00685466
-0.00876217
-0.0073264
-0.00741339
-0.0100611
-0.00974948
-0.00813472
-0.00948041
-0.0117415
-0.0117411
-0.0111504
-0.0121411
-0.0138222
-0.00288872
-0.00581045
-0.00670758
-0.00476004
-0.00496933
-0.00615943
-0.00566843
-0.00685321
-0.00884208
-0.00767727
-0.00753298
-0.0100648
-0.0101699
-0.00858299
-0.00953834
-0.0118922
-0.0123048
-0.0116832
-0.012317
-0.013927
-0.00311453
-0.00575627
-0.0068231
-0.004979
-0.00502628
-0.00635605
-0.00595021
-0.00687591
-0.00889541
-0.00803879
-0.00771041
-0.0100531
-0.010551
-0.00908885
-0.00966339
-0.0119794
-0.0127963
-0.0122665
-0.0125802
-0.014008
-0.00335108
-0.00570998
-0.00692134
-0.00522282
-0.00509368
-0.00652288
-0.00625671
-0.00693574
-0.00892564
-0.00839603
-0.0079476
-0.0100433
-0.0108801
-0.00962978
-0.00987091
-0.0120292
-0.0131978
-0.0128676
-0.0129345
-0.0141086
-0.00359712
-0.00567536
-0.00699981
-0.00548806
-0.00518087
-0.00665844
-0.00657793
-0.00704258
-0.0089397
-0.00873523
-0.00823962
-0.0100536
-0.0111516
-0.0101794
-0.0101645
-0.0120769
-0.0135079
-0.0134505
-0.0133677
-0.014258
-0.00385088
-0.00565632
-0.00705718
-0.0057692
-0.00529773
-0.00676458
-0.00689882
-0.0071993
-0.00895021
-0.00904859
-0.0085756
-0.0100988
-0.0113694
-0.0107141
-0.0105358
-0.0121564
-0.0137404
-0.0139823
-0.0138571
-0.0144726
-0.00411045
-0.00565593
-0.0070943
-0.00605896
-0.00545194
-0.00684909
-0.00720524
-0.00740286
-0.00897304
-0.00933255
-0.00894072
-0.0101903
-0.011546
-0.0112148
-0.0109671
-0.012292
-0.0139198
-0.0144421
-0.0143727
-0.0147592
-0.00437356
-0.00567689
-0.007115
-0.00634786
-0.00564732
-0.00692532
-0.00748798
-0.00764461
-0.00902117
-0.00958807
-0.00932069
-0.0103334
-0.0116973
-0.0116689
-0.0114372
-0.0124948
-0.014076
-0.0148267
-0.0148809
-0.0151115
-0.00463774
-0.00572167
-0.00712454
-0.006626
-0.00588406
-0.00700952
-0.00774387
-0.00791079
-0.00910095
-0.0098198
-0.00970421
-0.0105275
-0.01184
-0.0120715
-0.0119226
-0.0127635
-0.0142372
-0.0151492
-0.0153544
-0.0155081
-0.00490083
-0.00579144
-0.00712948
-0.00688652
-0.00615785
-0.00711528
-0.00797363
-0.00818971
-0.00921486
-0.0100335
-0.0100821
-0.0107678
-0.0119893
-0.0124253
-0.0124012
-0.0130871
-0.014424
-0.0154295
-0.0157818
-0.0159221
-0.00516092
-0.00588582
-0.00713917
-0.00712681
-0.00645932
-0.00725057
-0.00818287
-0.00847341
-0.0093612
-0.0102341
-0.0104473
-0.0110472
-0.012159
-0.0127404
-0.012857
-0.0134483
-0.0146456
-0.0156881
-0.0161663
-0.0163322
-0.00541679
-0.00600327
-0.00715998
-0.00734595
-0.0067785
-0.00742206
-0.0083843
-0.00875784
-0.00953471
-0.0104257
-0.0107934
-0.0113554
-0.0123572
-0.0130292
-0.0132815
-0.0138286
-0.0149003
-0.0159398
-0.016516
-0.0167283
-0.00566835
-0.00614235
-0.00719575
-0.00754389
-0.00710357
-0.00762975
-0.00859198
-0.0090425
-0.00973284
-0.0106135
-0.0111173
-0.0116826
-0.0125886
-0.0133042
-0.0136738
-0.0142129
-0.0151811
-0.0161918
-0.0168374
-0.0171061
-0.0059156
-0.00630234
-0.00725113
-0.0077237
-0.00742594
-0.00786985
-0.00881001
-0.00932827
-0.00995126
-0.0107999
-0.0114172
-0.0120186
-0.0128536
-0.0135795
-0.0140389
-0.0145899
-0.0154809
-0.0164486
-0.017135
-0.0174613
-0.00615699
-0.00648165
-0.00733025
-0.00789223
-0.00774531
-0.00813569
-0.00904073
-0.00961606
-0.0101871
-0.0109877
-0.011691
-0.0123512
-0.013145
-0.013865
-0.0143846
-0.0149526
-0.0157902
-0.0167145
-0.0174161
-0.0177896
-0.00639187
-0.00665843
-0.00743278
-0.00807833
-0.00806702
-0.00841685
-0.0092787
-0.00990532
-0.010444
-0.0111856
-0.0119438
-0.0126717
-0.0134536
-0.0141647
-0.0147223
-0.0153029
-0.0160987
-0.0169874
-0.017689
-0.0180906
-0.0066255
-0.00685447
-0.0075595
-0.00826636
-0.00838155
-0.00870601
-0.00951902
-0.010193
-0.0107216
-0.0114
-0.0121801
-0.012971
-0.0137677
-0.0144767
-0.0150605
-0.0156492
-0.0164036
-0.0172592
-0.0179595
-0.0183724
-0.00685875
-0.00706106
-0.00770985
-0.00845446
-0.00868645
-0.00900081
-0.00976175
-0.0104781
-0.0110207
-0.011643
-0.0124115
-0.0132483
-0.0140774
-0.014796
-0.0153988
-0.0159963
-0.0167104
-0.0175246
-0.0182257
-0.0186444
-0.00709427
-0.0072794
-0.00787612
-0.00864213
-0.00898333
-0.00930547
-0.0100122
-0.0107593
-0.0113357
-0.0119162
-0.012648
-0.0135056
-0.0143702
-0.0151148
-0.0157343
-0.0163406
-0.0170258
-0.0177883
-0.0184826
-0.0189111
-0.00733364
-0.00750811
-0.00805948
-0.00883344
-0.00927322
-0.00961811
-0.0102712
-0.0110291
-0.0116518
-0.012214
-0.0128995
-0.0137497
-0.0146405
-0.0154233
-0.0160672
-0.0166786
-0.0173476
-0.0180598
-0.0187293
-0.0191703
-0.00757652
-0.0077495
-0.00825856
-0.00902803
-0.00955489
-0.0099346
-0.0105401
-0.0112916
-0.0119598
-0.0125282
-0.0131742
-0.0139934
-0.0148912
-0.0157109
-0.0163935
-0.0170118
-0.0176675
-0.0183427
-0.0189722
-0.0194166
-0.00782028
-0.00798899
-0.0084766
-0.00923689
-0.0098315
-0.0102533
-0.01082
-0.0115513
-0.0122535
-0.0128465
-0.013469
-0.0142463
-0.0151296
-0.0159725
-0.0166995
-0.0173381
-0.0179825
-0.0186334
-0.019221
-0.0196503
-0.00806799
-0.00823971
-0.00870863
-0.00945368
-0.010101
-0.0105697
-0.0111104
-0.011811
-0.0125328
-0.013158
-0.0137757
-0.0145135
-0.0153657
-0.016214
-0.0169735
-0.0176442
-0.0182866
-0.0189204
-0.0194785
-0.0198816
-0.00832041
-0.00849486
-0.00895354
-0.00968069
-0.0103638
-0.0108796
-0.0114086
-0.012075
-0.0128
-0.0134547
-0.0140824
-0.0147912
-0.0156083
-0.0164484
-0.0172263
-0.0179237
-0.0185731
-0.0191939
-0.0197336
-0.0201121
-0.0085784
-0.0087572
-0.00920656
-0.0099151
-0.0106218
-0.0111828
-0.0117127
-0.0123492
-0.0130639
-0.0137367
-0.0143778
-0.0150669
-0.0158475
-0.016672
-0.0174636
-0.0181815
-0.0188405
-0.0194539
-0.0199801
-0.0203386
-0.00884024
-0.00901917
-0.00946656
-0.0101618
-0.0108812
-0.0114797
-0.0120168
-0.0126275
-0.0133225
-0.0140052
-0.0146616
-0.0153379
-0.0160813
-0.0168759
-0.0176717
-0.0184116
-0.0190859
-0.0197022
-0.0202215
-0.0205688
-0.00910729
-0.00928661
-0.00973245
-0.0104169
-0.0111408
-0.0117661
-0.0123147
-0.0129072
-0.0135769
-0.0142588
-0.0149297
-0.0156018
-0.0163173
-0.0170724
-0.0178491
-0.0186007
-0.0192903
-0.0199173
-0.0204412
-0.0207899
-0.00937965
-0.00956169
-0.0100012
-0.010677
-0.0114012
-0.0120459
-0.0126073
-0.0131878
-0.0138312
-0.0145001
-0.0151733
-0.0158408
-0.0165385
-0.0172628
-0.0180058
-0.0187507
-0.0194481
-0.0200831
-0.0206187
-0.0209793
-0.00965311
-0.00983228
-0.0102733
-0.0109453
-0.0116657
-0.0123208
-0.012894
-0.0134642
-0.0140821
-0.0147331
-0.0153985
-0.0160536
-0.0167311
-0.0174309
-0.0181419
-0.0188644
-0.0195597
-0.020194
-0.0207343
-0.0211073
-0.00993017
-0.0101095
-0.0105467
-0.0112123
-0.0119283
-0.0125883
-0.0131733
-0.0137392
-0.0143297
-0.0149568
-0.0156062
-0.0162409
-0.0168906
-0.0175612
-0.018243
-0.0189379
-0.0196228
-0.020251
-0.0207881
-0.0211646
-0.0102108
-0.0103916
-0.0108216
-0.0114789
-0.0121882
-0.0128472
-0.0134407
-0.0140079
-0.014581
-0.0151764
-0.0157915
-0.0163891
-0.0169983
-0.0176315
-0.0182829
-0.0189497
-0.0196236
-0.0202563
-0.0208016
-0.0211991
-0.0104896
-0.0106713
-0.0111006
-0.0117496
-0.0124462
-0.0130966
-0.0136939
-0.0142668
-0.0148476
-0.0154216
-0.0159763
-0.0165002
-0.0170281
-0.0175787
-0.0181553
-0.0187556
-0.0193844
-0.0200293
-0.0206578
-0.0212008
-0.0107644
-0.0109488
-0.0113807
-0.0120199
-0.0127008
-0.013339
-0.0139247
-0.0145107
-0.0151473
-0.015785
-0.0163151
-0.0167389
-0.0171613
-0.0176155
-0.0180841
-0.0185189
-0.0188787
-0.0191294
-0.0192914
-0.0194501
-0.0110507
-0.0112173
-0.0116333
-0.0122544
-0.0129388
-0.0135827
-0.014121
-0.014616
-0.0151505
-0.0157171
-0.0162778
-0.0167903
-0.0172682
-0.0177155
-0.01812
-0.018464
-0.0187659
-0.0190662
-0.0193916
-0.0197876
-0.0113764
-0.0115725
-0.0119
-0.0124122
-0.0130058
-0.0136006
-0.0141615
-0.0147042
-0.0152796
-0.0158766
-0.016471
-0.0170312
-0.0175159
-0.0179377
-0.018313
-0.01862
-0.018858
-0.0190238
-0.0191671
-0.0193669
-0.0115594
-0.0116781
-0.0120176
-0.0125455
-0.013122
-0.0137025
-0.0142772
-0.0148332
-0.0154082
-0.0159955
-0.0165419
-0.0170355
-0.0174854
-0.0179062
-0.0183619
-0.0188755
-0.0194867
-0.0201875
-0.0209263
-0.0216096
-0.0118258
-0.0119817
-0.0122461
-0.0126767
-0.0131915
-0.0137534
-0.0143319
-0.0149097
-0.0155067
-0.0161124
-0.0166913
-0.0172052
-0.0176636
-0.0180585
-0.01839
-0.0186543
-0.0188482
-0.0190061
-0.0191828
-0.019465
-0.0120007
-0.0121374
-0.0123711
-0.0127571
-0.0132348
-0.0137845
-0.0143679
-0.0149612
-0.0155868
-0.01621
-0.0168014
-0.0173182
-0.0177562
-0.0181222
-0.0184362
-0.0187336
-0.0190398
-0.0193781
-0.019773
-0.0202562
0.00995874
0.00175812
-0.00887019
-0.0161943
-0.0190681
-0.0191466
-0.0186499
-0.0187915
-0.019695
-0.0209486
-0.0221474
-0.0230183
-0.0235111
-0.0239032
-0.0244678
-0.0251272
-0.0257254
-0.0262909
-0.0268264
-0.0273187
-0.0278695
-0.0285206
-0.0291861
-0.0298027
-0.0303777
-0.0309909
-0.0316854
-0.0323786
-0.0330077
-0.0336588
-0.0343996
-0.0352128
-0.036077
-0.0369986
-0.0379592
-0.0388825
-0.0396935
-0.0403927
-0.0410592
-0.0417813
-0.0425776
-0.0433945
-0.0441825
-0.0449899
-0.0459041
-0.0468864
-0.0478904
-0.0488963
-0.0498533
-0.0507404
-0.0516204
-0.0525491
-0.0535434
-0.0545679
-0.0556161
-0.0566649
-0.0577164
-0.058783
-0.0598717
-0.0609847
-0.0621391
-0.0633219
-0.0644877
-0.0656746
-0.0668875
-0.0680907
-0.0693033
-0.0705623
-0.0718608
-0.0731653
-0.0744996
-0.0758423
-0.0772136
-0.0786114
-0.0800342
-0.0814626
-0.0829236
-0.0844438
-0.0860146
-0.0876165
-0.0891967
-0.0908054
-0.0924228
-0.0941008
-0.0958051
-0.0975765
-0.099352
-0.101161
-0.102984
-0.104853
-0.106773
-0.108666
-0.110665
-0.112662
-0.114693
-0.116729
-0.118751
-0.12074
-0.122504
-0.124315
0.008649
0.00161359
-0.0087757
-0.0160759
-0.0189914
-0.0191049
-0.0186205
-0.018769
-0.0196786
-0.0209372
-0.0221397
-0.0230132
-0.0235072
-0.0238994
-0.0244641
-0.0251238
-0.0257223
-0.0262882
-0.026824
-0.0273162
-0.027867
-0.0285183
-0.029184
-0.0298008
-0.0303758
-0.0309889
-0.0316835
-0.032377
-0.0330061
-0.0336572
-0.034398
-0.0352113
-0.0360756
-0.0369972
-0.037958
-0.0388814
-0.0396925
-0.0403918
-0.0410583
-0.0417804
-0.0425768
-0.0433938
-0.0441819
-0.0449892
-0.0459034
-0.0468858
-0.0478899
-0.0488959
-0.0498529
-0.05074
-0.05162
-0.0525487
-0.053543
-0.0545675
-0.0556158
-0.0566646
-0.0577161
-0.0587827
-0.0598714
-0.0609844
-0.0621388
-0.0633216
-0.0644875
-0.0656743
-0.0668873
-0.0680905
-0.069303
-0.0705621
-0.0718606
-0.0731651
-0.0744994
-0.0758421
-0.0772134
-0.0786112
-0.0800341
-0.0814624
-0.0829234
-0.0844436
-0.0860144
-0.0876163
-0.0891965
-0.0908053
-0.0924227
-0.0941007
-0.0958049
-0.0975764
-0.0993519
-0.101161
-0.102983
-0.104852
-0.106773
-0.108666
-0.110665
-0.112662
-0.114693
-0.116729
-0.118751
-0.12074
-0.122503
-0.124315
0.00763767
0.0015842
-0.00854061
-0.0158439
-0.0188629
-0.0190555
-0.0185988
-0.0187519
-0.019662
-0.0209212
-0.0221258
-0.0230028
-0.0235005
-0.0238951
-0.0244609
-0.0251209
-0.0257194
-0.0262854
-0.0268217
-0.0273141
-0.0278648
-0.0285163
-0.0291822
-0.0297992
-0.0303742
-0.0309872
-0.0316819
-0.0323755
-0.0330047
-0.0336558
-0.0343966
-0.0352099
-0.0360742
-0.036996
-0.037957
-0.0388807
-0.0396918
-0.040391
-0.0410574
-0.0417796
-0.042576
-0.0433932
-0.0441813
-0.0449886
-0.0459028
-0.0468853
-0.0478894
-0.0488955
-0.0498526
-0.0507397
-0.0516197
-0.0525483
-0.0535427
-0.0545672
-0.0556155
-0.0566644
-0.0577158
-0.0587824
-0.0598711
-0.0609841
-0.0621386
-0.0633214
-0.0644873
-0.0656741
-0.0668871
-0.0680903
-0.0693028
-0.0705619
-0.0718604
-0.073165
-0.0744992
-0.075842
-0.0772132
-0.078611
-0.0800339
-0.0814623
-0.0829232
-0.0844434
-0.0860143
-0.0876162
-0.0891964
-0.0908052
-0.0924226
-0.0941006
-0.0958048
-0.0975763
-0.0993518
-0.101161
-0.102983
-0.104852
-0.106773
-0.108666
-0.110665
-0.112662
-0.114693
-0.116729
-0.118751
-0.12074
-0.122503
-0.124315
0.00671036
0.00152035
-0.00827648
-0.0155704
-0.0187015
-0.0189955
-0.0185752
-0.0187324
-0.0196413
-0.0208992
-0.0221025
-0.0229815
-0.0234856
-0.0238869
-0.0244566
-0.0251173
-0.0257153
-0.0262817
-0.0268189
-0.0273118
-0.0278627
-0.0285141
-0.0291802
-0.0297977
-0.030373
-0.0309858
-0.0316803
-0.0323739
-0.0330032
-0.0336544
-0.0343952
-0.0352084
-0.0360727
-0.0369947
-0.0379561
-0.03888
-0.039691
-0.0403901
-0.0410564
-0.0417786
-0.0425752
-0.0433925
-0.0441806
-0.0449878
-0.0459021
-0.0468847
-0.0478889
-0.0488951
-0.0498523
-0.0507393
-0.0516192
-0.0525479
-0.0535423
-0.0545669
-0.0556152
-0.0566641
-0.0577155
-0.0587822
-0.0598708
-0.0609839
-0.0621383
-0.0633212
-0.064487
-0.0656739
-0.0668869
-0.0680901
-0.0693026
-0.0705617
-0.0718602
-0.0731648
-0.0744991
-0.0758418
-0.0772131
-0.0786109
-0.0800338
-0.0814621
-0.0829231
-0.0844433
-0.0860141
-0.0876161
-0.0891963
-0.090805
-0.0924224
-0.0941005
-0.0958047
-0.0975762
-0.0993517
-0.101161
-0.102983
-0.104852
-0.106773
-0.108666
-0.110665
-0.112662
-0.114693
-0.116729
-0.118751
-0.12074
-0.122503
-0.124315
0.00576139
0.00137499
-0.00801686
-0.0152833
-0.0185282
-0.0189316
-0.0185517
-0.0187114
-0.0196173
-0.0208716
-0.0220694
-0.0229481
-0.0234605
-0.0238729
-0.0244491
-0.0251113
-0.0257091
-0.0262759
-0.0268147
-0.0273092
-0.0278605
-0.0285114
-0.0291775
-0.029796
-0.0303723
-0.030985
-0.0316787
-0.032372
-0.0330017
-0.0336533
-0.0343939
-0.0352065
-0.0360707
-0.0369932
-0.0379552
-0.0388792
-0.03969
-0.040389
-0.0410553
-0.0417776
-0.0425741
-0.0433915
-0.0441797
-0.0449869
-0.0459012
-0.0468839
-0.0478883
-0.0488947
-0.049852
-0.0507389
-0.0516187
-0.0525474
-0.0535418
-0.0545665
-0.0556148
-0.0566638
-0.0577152
-0.0587818
-0.0598705
-0.0609836
-0.062138
-0.063321
-0.0644868
-0.0656737
-0.0668867
-0.0680899
-0.0693024
-0.0705615
-0.07186
-0.0731646
-0.0744989
-0.0758416
-0.0772129
-0.0786107
-0.0800336
-0.081462
-0.0829229
-0.0844431
-0.086014
-0.087616
-0.0891962
-0.0908049
-0.0924223
-0.0941003
-0.0958046
-0.0975761
-0.0993516
-0.101161
-0.102983
-0.104852
-0.106773
-0.108666
-0.110665
-0.112662
-0.114693
-0.116729
-0.118751
-0.12074
-0.122504
-0.124315
0.00479342
0.00115762
-0.0077583
-0.0149824
-0.0183458
-0.0188651
-0.0185296
-0.0186905
-0.0195913
-0.0208407
-0.0220309
-0.022907
-0.0234281
-0.0238537
-0.0244379
-0.0251021
-0.0256999
-0.0262677
-0.0268089
-0.0273061
-0.0278581
-0.028508
-0.0291736
-0.0297937
-0.0303721
-0.030985
-0.0316772
-0.0323698
-0.0330003
-0.0336529
-0.034393
-0.0352045
-0.0360682
-0.0369913
-0.0379541
-0.0388781
-0.0396885
-0.0403875
-0.041054
-0.0417764
-0.0425729
-0.0433903
-0.0441786
-0.0449858
-0.0459001
-0.0468829
-0.0478875
-0.0488942
-0.0498515
-0.0507383
-0.0516181
-0.0525468
-0.0535413
-0.054566
-0.0556144
-0.0566634
-0.0577148
-0.0587815
-0.0598702
-0.0609833
-0.0621377
-0.0633207
-0.0644866
-0.0656734
-0.0668865
-0.0680897
-0.0693022
-0.0705613
-0.0718598
-0.0731644
-0.0744987
-0.0758414
-0.0772127
-0.0786105
-0.0800334
-0.0814618
-0.0829227
-0.0844429
-0.0860138
-0.0876159
-0.089196
-0.0908048
-0.0924222
-0.0941002
-0.0958045
-0.097576
-0.0993515
-0.101161
-0.102983
-0.104852
-0.106773
-0.108666
-0.110665
-0.112662
-0.114693
-0.116729
-0.118751
-0.12074
-0.122504
-0.124316
0.00382788
0.000879871
-0.00750021
-0.0146682
-0.0181543
-0.0187958
-0.0185089
-0.01867
-0.0195636
-0.0208077
-0.0219901
-0.0228628
-0.0233927
-0.0238319
-0.0244239
-0.0250895
-0.0256876
-0.026257
-0.0268017
-0.0273026
-0.0278555
-0.0285037
-0.0291684
-0.0297907
-0.0303723
-0.0309857
-0.0316759
-0.0323672
-0.0329991
-0.0336533
-0.0343929
-0.0352027
-0.0360655
-0.0369892
-0.0379527
-0.0388765
-0.0396862
-0.0403853
-0.0410525
-0.0417751
-0.0425714
-0.0433887
-0.0441772
-0.0449844
-0.0458986
-0.0468815
-0.0478865
-0.0488934
-0.0498508
-0.0507376
-0.0516174
-0.0525461
-0.0535407
-0.0545654
-0.0556139
-0.056663
-0.0577143
-0.058781
-0.0598698
-0.0609829
-0.0621373
-0.0633204
-0.0644863
-0.0656732
-0.0668863
-0.0680895
-0.0693019
-0.070561
-0.0718596
-0.0731642
-0.0744985
-0.0758412
-0.0772125
-0.0786103
-0.0800333
-0.0814616
-0.0829225
-0.0844427
-0.0860137
-0.0876157
-0.0891959
-0.0908046
-0.092422
-0.0941
-0.0958043
-0.0975758
-0.0993513
-0.101161
-0.102983
-0.104852
-0.106773
-0.108666
-0.110665
-0.112662
-0.114693
-0.116729
-0.118751
-0.120741
-0.122505
-0.124316
0.00288038
0.00054317
-0.0072506
-0.0143435
-0.0179539
-0.0187227
-0.0184894
-0.0186505
-0.0195347
-0.020773
-0.0219479
-0.0228173
-0.0233559
-0.0238089
-0.0244082
-0.0250746
-0.0256726
-0.0262442
-0.0267934
-0.0272987
-0.0278529
-0.0284988
-0.0291621
-0.0297868
-0.0303723
-0.0309867
-0.0316747
-0.0323646
-0.0329981
-0.0336543
-0.0343936
-0.0352013
-0.036063
-0.0369873
-0.0379516
-0.0388744
-0.0396829
-0.0403819
-0.0410502
-0.0417735
-0.0425696
-0.043387
-0.0441758
-0.0449831
-0.045897
-0.0468797
-0.0478851
-0.0488924
-0.0498498
-0.0507366
-0.0516164
-0.0525452
-0.0535399
-0.0545647
-0.0556133
-0.0566624
-0.0577137
-0.0587803
-0.0598692
-0.0609824
-0.0621368
-0.0633199
-0.0644859
-0.0656729
-0.066886
-0.0680891
-0.0693016
-0.0705608
-0.0718594
-0.0731639
-0.0744983
-0.075841
-0.0772122
-0.0786101
-0.0800331
-0.0814614
-0.0829222
-0.0844425
-0.0860135
-0.0876156
-0.0891957
-0.0908044
-0.0924218
-0.0940998
-0.0958041
-0.0975757
-0.0993512
-0.101161
-0.102983
-0.104852
-0.106773
-0.108665
-0.110665
-0.112662
-0.114693
-0.116729
-0.118751
-0.120741
-0.122506
-0.124317
0.00196254
0.000147607
-0.00701942
-0.0140109
-0.0177432
-0.0186442
-0.0184705
-0.0186324
-0.0195048
-0.0207367
-0.0219045
-0.0227708
-0.0233181
-0.0237849
-0.0243914
-0.025058
-0.0256558
-0.0262298
-0.026784
-0.0272945
-0.02785
-0.0284936
-0.0291552
-0.0297821
-0.0303719
-0.0309877
-0.0316734
-0.0323618
-0.0329972
-0.0336559
-0.0343948
-0.0352003
-0.036061
-0.0369862
-0.037951
-0.0388723
-0.0396786
-0.0403774
-0.0410469
-0.0417711
-0.0425674
-0.0433849
-0.0441745
-0.0449821
-0.0458954
-0.0468778
-0.0478834
-0.048891
-0.0498485
-0.0507352
-0.0516153
-0.0525443
-0.0535389
-0.0545638
-0.0556125
-0.0566616
-0.0577128
-0.0587795
-0.0598684
-0.0609817
-0.0621362
-0.0633193
-0.0644855
-0.0656726
-0.0668856
-0.0680887
-0.0693013
-0.0705605
-0.0718591
-0.0731637
-0.0744981
-0.0758408
-0.077212
-0.0786099
-0.0800329
-0.0814612
-0.0829219
-0.0844422
-0.0860133
-0.0876154
-0.0891955
-0.0908043
-0.0924216
-0.0940996
-0.0958039
-0.0975755
-0.099351
-0.101161
-0.102983
-0.104852
-0.106773
-0.108665
-0.110664
-0.112662
-0.114693
-0.116729
-0.118751
-0.120742
-0.122507
-0.124318
0.00108517
-0.000304606
-0.0068162
-0.0136724
-0.0175204
-0.0185579
-0.0184512
-0.0186161
-0.0194746
-0.020699
-0.0218601
-0.0227232
-0.0232791
-0.0237601
-0.0243739
-0.0250404
-0.0256376
-0.0262142
-0.0267739
-0.02729
-0.0278471
-0.0284881
-0.0291478
-0.029777
-0.0303711
-0.0309885
-0.031672
-0.0323591
-0.0329965
-0.0336578
-0.0343963
-0.0351998
-0.0360597
-0.0369862
-0.0379516
-0.0388707
-0.039674
-0.0403718
-0.0410425
-0.0417678
-0.0425644
-0.0433824
-0.0441732
-0.0449815
-0.0458942
-0.046876
-0.0478818
-0.0488895
-0.0498468
-0.0507335
-0.0516138
-0.0525431
-0.0535378
-0.0545627
-0.0556116
-0.0566607
-0.0577118
-0.0587784
-0.0598675
-0.0609808
-0.0621352
-0.0633184
-0.0644848
-0.0656721
-0.0668851
-0.0680882
-0.0693009
-0.0705601
-0.0718587
-0.0731634
-0.0744979
-0.0758405
-0.0772117
-0.0786096
-0.0800326
-0.0814609
-0.0829216
-0.084442
-0.0860131
-0.0876152
-0.0891953
-0.0908041
-0.0924214
-0.0940994
-0.0958037
-0.0975753
-0.0993508