/*--------------------------------*- C++ -*----------------------------------*\
| =========                 |                                                 |
| \\      /  F ield         | OpenFOAM: The Open Source CFD Toolbox           |
|  \\    /   O peration     | Version:  2506                                  |
|   \\  /    A nd           | Website:  www.openfoam.com                      |
|    \\/     M anipulation  |                                                 |
\*---------------------------------------------------------------------------*/
FoamFile
{
    version     2.0;
    format      ascii;
    arch        "LSB;label=32;scalar=64";
    class       surfaceScalarField;
    location    "9.7";
    object      phi;
}
// * * * * * * * * * * * * * * * * * * * * * * * * * * * * * * * * * * * * * //

dimensions      [0 3 -1 0 0 0 0];

oriented        oriented;

internalField   nonuniform List<scalar> 
19000
(
1.20646e-06
1.85468e-06
1.16772e-06
-1.16839e-06
1.13709e-06
-1.26768e-07
1.17107e-06
3.36884e-07
1.194e-06
1.29572e-06
1.04697e-06
-1.64082e-06
1.15606e-06
1.12556e-06
1.11838e-06
2.53076e-07
1.12213e-06
-3.53119e-07
1.16774e-06
7.03061e-07
1.11971e-06
1.47987e-07
1.14425e-06
6.60942e-07
1.14045e-06
4.80161e-07
1.13456e-06
5.68529e-07
1.13636e-06
7.59269e-07
1.1111e-06
2.4793e-07
1.1298e-06
6.55046e-07
1.09385e-06
8.04273e-09
1.11382e-06
3.14105e-07
-2.03828e-07
1.03828e-06
1.25806e-06
1.82088e-06
1.22023e-06
-1.13056e-06
1.1872e-06
-9.37367e-08
1.22586e-06
2.98231e-07
1.24825e-06
1.27333e-06
1.09746e-06
-1.49003e-06
1.20604e-06
1.01699e-06
1.17078e-06
2.88332e-07
1.17314e-06
-3.55477e-07
1.23504e-06
6.41156e-07
1.17733e-06
2.05703e-07
1.20763e-06
6.30644e-07
1.198e-06
4.89783e-07
1.19958e-06
5.66952e-07
1.18571e-06
7.73138e-07
1.17622e-06
2.57417e-07
1.17234e-06
6.58928e-07
1.16428e-06
1.61049e-08
1.15382e-06
3.24564e-07
-1.80162e-07
1.13015e-06
1.31244e-06
1.79122e-06
1.27639e-06
-1.09451e-06
1.24116e-06
-5.85015e-08
1.27817e-06
2.61219e-07
1.3049e-06
1.24661e-06
1.15614e-06
-1.34127e-06
1.25459e-06
9.18535e-07
1.23425e-06
3.0867e-07
1.22995e-06
-3.51177e-07
1.30305e-06
5.68062e-07
1.24197e-06
2.66779e-07
1.27216e-06
6.00454e-07
1.25888e-06
5.03059e-07
1.2646e-06
5.61233e-07
1.24769e-06
7.90052e-07
1.23737e-06
2.67733e-07
1.23878e-06
6.5752e-07
1.22976e-06
2.51231e-08
1.23197e-06
3.22354e-07
-1.53706e-07
1.20552e-06
1.36894e-06
1.76638e-06
1.33795e-06
-1.06352e-06
1.29857e-06
-1.91235e-08
1.33029e-06
2.29497e-07
1.36347e-06
1.21343e-06
1.22615e-06
-1.20396e-06
1.30453e-06
8.40157e-07
1.30912e-06
3.04077e-07
1.29012e-06
-3.3218e-07
1.36382e-06
4.94369e-07
1.30919e-06
3.21408e-07
1.32715e-06
5.82496e-07
1.31752e-06
5.1269e-07
1.32196e-06
5.56792e-07
1.31074e-06
8.01266e-07
1.29624e-06
2.82232e-07
1.3018e-06
6.51959e-07
1.29145e-06
3.54746e-08
1.29956e-06
3.14249e-07
-1.24361e-07
1.27021e-06
1.42845e-06
1.74629e-06
1.40443e-06
-1.0395e-06
1.3612e-06
2.41081e-08
1.38484e-06
2.05853e-07
1.42431e-06
1.17397e-06
1.30733e-06
-1.08698e-06
1.35899e-06
7.88495e-07
1.38799e-06
2.75073e-07
1.35452e-06
-2.98709e-07
1.41538e-06
4.3351e-07
1.37873e-06
3.58054e-07
1.37949e-06
5.81737e-07
1.37211e-06
5.20078e-07
1.37423e-06
5.54666e-07
1.36959e-06
8.05903e-07
1.35475e-06
2.97078e-07
1.36371e-06
6.42994e-07
1.35442e-06
4.47644e-08
1.36756e-06
3.01109e-07
-9.55791e-08
1.33878e-06
1.49196e-06
1.73001e-06
1.47468e-06
-1.02222e-06
1.43026e-06
6.85265e-08
1.44468e-06
1.91429e-07
1.48787e-06
1.13078e-06
1.3958e-06
-9.94907e-07
1.42091e-06
7.63389e-07
1.46462e-06
2.3136e-07
1.42515e-06
-2.59244e-07
1.46673e-06
3.91937e-07
1.45061e-06
3.74175e-07
1.43929e-06
5.93054e-07
1.42903e-06
5.30342e-07
1.428e-06
5.55689e-07
1.42904e-06
8.04868e-07
1.41786e-06
3.08254e-07
1.4314e-06
6.29462e-07
1.42403e-06
5.21303e-08
1.44109e-06
2.84047e-07
-6.77358e-08
1.41325e-06
1.56024e-06
1.71599e-06
1.54764e-06
-1.00962e-06
1.5059e-06
1.10266e-07
1.51185e-06
1.85481e-07
1.55482e-06
1.08781e-06
1.48654e-06
-9.26626e-07
1.49142e-06
7.58504e-07
1.53875e-06
1.84031e-07
1.50276e-06
-2.23258e-07
1.52675e-06
3.67947e-07
1.52479e-06
3.76135e-07
1.50946e-06
6.0839e-07
1.49496e-06
5.4484e-07
1.49036e-06
5.6029e-07
1.49549e-06
7.99734e-07
1.48944e-06
3.14302e-07
1.50775e-06
6.1115e-07
1.50144e-06
5.84451e-08
1.5207e-06
2.64792e-07
-4.00979e-08
1.49306e-06
1.63358e-06
1.70254e-06
1.62287e-06
-9.98917e-07
1.58715e-06
1.45993e-07
1.58697e-06
1.85663e-07
1.62594e-06
1.04883e-06
1.57617e-06
-8.76857e-07
1.56982e-06
7.64854e-07
1.61353e-06
1.40326e-07
1.58542e-06
-1.95151e-07
1.5972e-06
3.56171e-07
1.6013e-06
3.72034e-07
1.58727e-06
6.22422e-07
1.57103e-06
5.61078e-07
1.56445e-06
5.66865e-07
1.57224e-06
7.91944e-07
1.57025e-06
3.16296e-07
1.59215e-06
5.89246e-07
1.58536e-06
6.52388e-08
1.60533e-06
2.44817e-07
-1.21791e-08
1.57742e-06
1.71184e-06
1.68827e-06
1.70058e-06
-9.87658e-07
1.67256e-06
1.74021e-07
1.66939e-06
1.88832e-07
1.70187e-06
1.01635e-06
1.66408e-06
-8.39073e-07
1.65466e-06
7.74273e-07
1.6918e-06
1.03192e-07
1.67062e-06
-1.73975e-07
1.67495e-06
3.51844e-07
1.68007e-06
3.66911e-07
1.66934e-06
6.33148e-07
1.65454e-06
5.75886e-07
1.64879e-06
5.72611e-07
1.6587e-06
7.82037e-07
1.65887e-06
3.16126e-07
1.68273e-06
5.65382e-07
1.67408e-06
7.38856e-08
1.69374e-06
2.25156e-07
1.58758e-08
1.66569e-06
1.79468e-06
1.67231e-06
1.78131e-06
-9.74292e-07
1.76099e-06
1.94339e-07
1.75776e-06
1.9207e-07
1.78286e-06
9.91249e-07
1.75163e-06
-8.07847e-07
1.74465e-06
7.81258e-07
1.7747e-06
7.31419e-08
1.7574e-06
-1.56672e-07
1.75698e-06
3.52258e-07
1.7613e-06
3.62593e-07
1.75417e-06
6.40278e-07
1.74285e-06
5.87206e-07
1.74023e-06
5.75236e-07
1.75235e-06
7.69917e-07
1.7532e-06
3.15274e-07
1.77777e-06
5.40813e-07
1.76646e-06
8.51968e-08
1.78495e-06
2.06665e-07
4.34533e-08
1.75737e-06
1.88177e-06
1.65429e-06
1.86563e-06
-9.58146e-07
1.852e-06
2.07961e-07
1.85061e-06
1.93459e-07
1.8689e-06
9.72962e-07
1.84078e-06
-7.79721e-07
1.83884e-06
7.83188e-07
1.86213e-06
4.986e-08
1.84632e-06
-1.4087e-07
1.84245e-06
3.56128e-07
1.84575e-06
3.59292e-07
1.842e-06
6.44029e-07
1.83499e-06
5.94222e-07
1.83652e-06
5.73706e-07
1.85098e-06
7.55456e-07
1.85158e-06
3.14677e-07
1.87604e-06
5.16349e-07
1.86185e-06
9.93884e-08
1.8784e-06
1.90117e-07
6.98107e-08
1.85204e-06
1.97297e-06
1.63416e-06
1.95397e-06
-9.39153e-07
1.9457e-06
2.16237e-07
1.94684e-06
1.92316e-07
1.95984e-06
9.5996e-07
1.93297e-06
-7.52851e-07
1.93653e-06
7.79634e-07
1.95361e-06
3.27797e-08
1.93842e-06
-1.25681e-07
1.9319e-06
3.62646e-07
1.93451e-06
3.56678e-07
1.93384e-06
6.44702e-07
1.93112e-06
5.96939e-07
1.93675e-06
5.68083e-07
1.95339e-06
7.38812e-07
1.95308e-06
3.14988e-07
1.9768e-06
4.92632e-07
1.96e-06
1.1619e-07
1.97389e-06
1.76223e-07
9.42242e-08
1.94948e-06
2.06824e-06
1.61211e-06
2.04669e-06
-9.176e-07
2.04247e-06
2.20451e-07
2.04583e-06
1.88961e-07
2.05555e-06
9.50243e-07
2.02895e-06
-7.26251e-07
2.03721e-06
7.71365e-07
2.04885e-06
2.11462e-08
2.03434e-06
-1.11174e-07
2.02592e-06
3.71069e-07
2.02842e-06
3.54179e-07
2.03052e-06
6.42594e-07
2.03161e-06
5.95854e-07
2.04061e-06
5.59084e-07
2.05895e-06
7.20473e-07
2.05726e-06
3.16681e-07
2.07964e-06
4.70248e-07
2.06085e-06
1.34976e-07
2.07159e-06
1.65486e-07
1.16082e-07
2.04973e-06
2.16769e-06
1.58842e-06
2.14407e-06
-8.9398e-07
2.14283e-06
2.21693e-07
2.14751e-06
1.84273e-07
2.1559e-06
9.41862e-07
2.12896e-06
-6.99312e-07
2.14084e-06
7.59479e-07
2.14783e-06
1.41614e-08
2.13431e-06
-9.76525e-08
2.12465e-06
3.80726e-07
2.12774e-06
3.51088e-07
2.13232e-06
6.38015e-07
2.13637e-06
5.918e-07
2.14775e-06
5.47709e-07
2.16712e-06
7.01104e-07
2.16384e-06
3.19957e-07
2.18445e-06
4.4964e-07
2.16458e-06
1.54842e-07
2.17198e-06
1.58083e-07
1.34942e-07
2.15312e-06
2.27148e-06
1.56343e-06
2.24642e-06
-8.68919e-07
2.24725e-06
2.20862e-07
2.25224e-06
1.79281e-07
2.26082e-06
9.33283e-07
2.2332e-06
-6.71691e-07
2.24785e-06
7.44829e-07
2.25071e-06
1.12983e-08
2.23838e-06
-8.5324e-08
2.22806e-06
3.91049e-07
2.23237e-06
3.46782e-07
2.23904e-06
6.31344e-07
2.24498e-06
5.8586e-07
2.25769e-06
5.34993e-07
2.27743e-06
6.81367e-07
2.27274e-06
3.24649e-07
2.29138e-06
4.30998e-07
2.27148e-06
1.74741e-07
2.27575e-06
1.53815e-07
1.50578e-07
2.26012e-06
2.37986e-06
1.53745e-06
2.35401e-06
-8.43064e-07
2.35619e-06
2.18682e-07
2.36054e-06
1.74928e-07
2.37033e-06
9.2349e-07
2.34198e-06
-6.43334e-07
2.35893e-06
7.27876e-07
2.35776e-06
1.24716e-08
2.34676e-06
-7.43299e-08
2.3363e-06
4.01514e-07
2.34211e-06
3.40973e-07
2.3504e-06
6.23046e-07
2.35706e-06
5.79201e-07
2.37021e-06
5.21845e-07
2.38977e-06
6.61803e-07
2.38415e-06
3.3027e-07
2.40091e-06
4.14244e-07
2.38194e-06
1.93709e-07
2.38358e-06
1.52175e-07
1.62995e-07
2.37116e-06
2.49315e-06
1.51069e-06
2.46701e-06
-8.16919e-07
2.46999e-06
2.15698e-07
2.47292e-06
1.71993e-07
2.48459e-06
9.11821e-07
2.45563e-06
-6.1437e-07
2.47465e-06
7.08854e-07
2.4693e-06
1.78201e-08
2.45979e-06
-6.48142e-08
2.44966e-06
4.11641e-07
2.45685e-06
3.33783e-07
2.4663e-06
6.13595e-07
2.47265e-06
5.72855e-07
2.48557e-06
5.08918e-07
2.50453e-06
6.42848e-07
2.49859e-06
3.3621e-07
2.51372e-06
3.99116e-07
2.49635e-06
2.11076e-07
2.49599e-06
1.52531e-07
1.72345e-07
2.48664e-06
2.61172e-06
1.48326e-06
2.58551e-06
-7.90703e-07
2.58896e-06
2.12249e-07
2.58986e-06
1.71094e-07
2.60391e-06
8.97771e-07
2.57441e-06
-5.84876e-07
2.59523e-06
6.88033e-07
2.58578e-06
2.72717e-08
2.57786e-06
-5.68953e-08
2.56835e-06
4.21157e-07
2.57651e-06
3.25622e-07
2.58678e-06
6.03322e-07
2.59208e-06
5.67558e-07
2.60447e-06
4.96522e-07
2.6225e-06
6.24817e-07
2.61675e-06
3.41964e-07
2.63062e-06
3.8525e-07
2.61515e-06
2.26546e-07
2.6134e-06
1.5428e-07
1.78843e-07
2.6069e-06
2.73596e-06
1.45514e-06
2.70958e-06
-7.64329e-07
2.71338e-06
2.08449e-07
2.71182e-06
1.72659e-07
2.72865e-06
8.80943e-07
2.69849e-06
-5.54717e-07
2.72072e-06
6.65796e-07
2.70768e-06
4.0313e-08
2.7014e-06
-5.06095e-08
2.69244e-06
4.30117e-07
2.70103e-06
3.17032e-07
2.71206e-06
5.92287e-07
2.71591e-06
5.6371e-07
2.72777e-06
4.84659e-07
2.74476e-06
6.07825e-07
2.73944e-06
3.4729e-07
2.75248e-06
3.72204e-07
2.73889e-06
2.40137e-07
2.73617e-06
1.57004e-07
1.82685e-07
2.73233e-06
2.86621e-06
1.42619e-06
2.83938e-06
-7.37495e-07
2.84362e-06
2.04204e-07
2.83939e-06
1.7689e-07
2.8592e-06
8.61135e-07
2.82806e-06
-5.23576e-07
2.85134e-06
6.42513e-07
2.83551e-06
5.61452e-08
2.8308e-06
-4.59057e-08
2.8221e-06
4.38817e-07
2.83054e-06
3.08597e-07
2.84255e-06
5.80279e-07
2.84483e-06
5.61431e-07
2.85633e-06
4.73155e-07
2.87241e-06
5.91742e-07
2.86748e-06
3.52224e-07
2.88012e-06
3.5956e-07
2.86829e-06
2.51969e-07
2.8647e-06
1.60589e-07
1.84043e-07
2.86335e-06
3.0028e-06
1.39629e-06
2.97513e-06
-7.09832e-07
2.98007e-06
1.99265e-07
2.97318e-06
1.83782e-07
2.99591e-06
8.38407e-07
2.96344e-06
-4.91111e-07
2.98756e-06
6.18392e-07
2.96971e-06
7.40034e-08
2.96647e-06
-4.26655e-08
2.95778e-06
4.47504e-07
2.96546e-06
3.00916e-07
2.9788e-06
5.66939e-07
2.97961e-06
5.60624e-07
2.99091e-06
4.61852e-07
3.00644e-06
5.76214e-07
3.00165e-06
3.5701e-07
3.01418e-06
3.47038e-07
3.00407e-06
2.6208e-07
2.99947e-06
1.65185e-07
1.83166e-07
3.00035e-06
3.14601e-06
1.36529e-06
3.11719e-06
-6.81003e-07
3.12313e-06
1.9332e-07
3.11372e-06
1.9319e-07
3.13911e-06
8.13023e-07
3.10507e-06
-4.57078e-07
3.13e-06
5.93465e-07
3.11066e-06
9.33456e-08
3.10871e-06
-4.07143e-08
3.10005e-06
4.56159e-07
3.1064e-06
2.94571e-07
3.12142e-06
5.51913e-07
3.12101e-06
5.61039e-07
3.13212e-06
4.50737e-07
3.1476e-06
5.60736e-07
3.14259e-06
3.62018e-07
3.15509e-06
3.3454e-07
3.14686e-06
2.70315e-07
3.14091e-06
1.71127e-07
1.80473e-07
3.14361e-06
3.29615e-06
1.33305e-06
3.26589e-06
-6.50744e-07
3.27314e-06
1.86066e-07
3.2614e-06
2.04934e-07
3.2891e-06
7.85321e-07
3.2534e-06
-4.21381e-07
3.27917e-06
5.67698e-07
3.2587e-06
1.13817e-07
3.25779e-06
-3.97994e-08
3.24948e-06
4.64463e-07
3.25396e-06
2.90092e-07
3.27091e-06
5.34965e-07
3.26962e-06
5.62327e-07
3.28039e-06
4.39969e-07
3.29632e-06
5.44799e-07
3.2908e-06
3.67542e-07
3.30311e-06
3.22232e-07
3.29708e-06
2.76344e-07
3.28954e-06
1.78662e-07
1.76664e-07
3.29335e-06
3.4535e-06
1.29948e-06
3.42161e-06
-6.18849e-07
3.43041e-06
1.7726e-07
3.4165e-06
2.18844e-07
3.4462e-06
7.5562e-07
3.40888e-06
-3.8406e-07
3.43546e-06
5.41125e-07
3.41415e-06
1.35117e-07
3.41393e-06
-3.95698e-08
3.40648e-06
4.71909e-07
3.40866e-06
2.87912e-07
3.4276e-06
5.16027e-07
3.42586e-06
5.64065e-07
3.43596e-06
4.29873e-07
3.45282e-06
5.27936e-07
3.44671e-06
3.73653e-07
3.45834e-06
3.10599e-07
3.45498e-06
2.79709e-07
3.44588e-06
1.8776e-07
1.7273e-07
3.44981e-06
3.61839e-06
1.26449e-06
3.58469e-06
-5.85146e-07
3.59522e-06
1.66726e-07
3.57929e-06
2.34776e-07
3.61072e-06
7.24187e-07
3.57195e-06
-3.4528e-07
3.59915e-06
5.13917e-07
3.57738e-06
1.56894e-07
3.57738e-06
-3.95695e-08
3.57136e-06
4.77926e-07
3.57092e-06
2.88347e-07
3.59174e-06
4.95215e-07
3.59005e-06
5.65753e-07
3.59903e-06
4.20892e-07
3.61719e-06
5.09772e-07
3.61069e-06
3.80159e-07
3.62093e-06
3.0036e-07
3.6206e-06
2.80035e-07
3.61049e-06
1.9787e-07
1.69916e-07
3.61331e-06
3.79117e-06
1.22803e-06
3.75551e-06
-5.4948e-07
3.76787e-06
1.54361e-07
3.75007e-06
2.52583e-07
3.78299e-06
6.91266e-07
3.74304e-06
-3.05331e-07
3.77056e-06
4.86396e-07
3.74875e-06
1.78703e-07
3.74844e-06
-3.92559e-08
3.74439e-06
4.81977e-07
3.74116e-06
2.91568e-07
3.76354e-06
4.72838e-07
3.76249e-06
5.66808e-07
3.76985e-06
4.1353e-07
3.78952e-06
4.90096e-07
3.78311e-06
3.86574e-07
3.79113e-06
2.92333e-07
3.79395e-06
2.77216e-07
3.78382e-06
2.08002e-07
1.69355e-07
3.78438e-06
3.9722e-06
1.19002e-06
3.93444e-06
-5.11725e-07
3.94867e-06
1.40133e-07
3.92918e-06
2.72078e-07
3.96332e-06
6.57122e-07
3.92261e-06
-2.6462e-07
3.94998e-06
4.59027e-07
3.92868e-06
1.99999e-07
3.92746e-06
-3.8036e-08
3.92581e-06
4.83627e-07
3.91982e-06
2.97562e-07
3.94326e-06
4.494e-07
3.94349e-06
5.66578e-07
3.94875e-06
4.08263e-07
3.96991e-06
4.68938e-07
3.96427e-06
3.9221e-07
3.96942e-06
2.87188e-07
3.97511e-06
2.71525e-07
3.96606e-06
2.17049e-07
1.71574e-07
3.96385e-06
4.16185e-06
1.15041e-06
4.12192e-06
-4.71791e-07
4.13797e-06
1.24081e-07
4.11703e-06
2.93016e-07
4.15207e-06
6.22078e-07
4.11112e-06
-2.23666e-07
4.13776e-06
4.3239e-07
4.11758e-06
2.20178e-07
4.11488e-06
-3.53357e-08
4.11591e-06
4.82591e-07
4.10736e-06
3.06113e-07
4.13121e-06
4.25554e-07
4.13335e-06
5.64437e-07
4.13621e-06
4.05402e-07
4.15852e-06
4.46624e-07
4.15443e-06
3.96309e-07
4.15645e-06
2.85161e-07
4.16416e-06
2.63821e-07
4.15736e-06
2.2385e-07
1.7646e-07
4.15247e-06
4.36052e-06
1.10919e-06
4.31838e-06
-4.29649e-07
4.33613e-06
1.06326e-07
4.31407e-06
3.15078e-07
4.3496e-06
5.86547e-07
4.30902e-06
-1.83083e-07
4.33425e-06
4.07159e-07
4.31581e-06
2.38617e-07
4.31117e-06
-3.06936e-08
4.31498e-06
4.78787e-07
4.30427e-06
3.16813e-07
4.32782e-06
4.02007e-07
4.33237e-06
5.59886e-07
4.33278e-06
4.04996e-07
4.35559e-06
4.23814e-07
4.35381e-06
3.98088e-07
4.35284e-06
2.86129e-07
4.36135e-06
2.5531e-07
4.35773e-06
2.27475e-07
1.83269e-07
4.35092e-06
4.56861e-06
1.06636e-06
4.52431e-06
-3.8535e-07
4.54358e-06
8.70574e-08
4.52078e-06
3.3788e-07
4.55629e-06
5.51029e-07
4.51677e-06
-1.43557e-07
4.53987e-06
3.84061e-07
4.52374e-06
2.54748e-07
4.51689e-06
-2.38441e-08
4.52332e-06
4.72358e-07
4.51106e-06
3.29064e-07
4.53357e-06
3.79497e-07
4.54086e-06
5.52596e-07
4.53903e-06
4.06835e-07
4.56147e-06
4.01371e-07
4.56265e-06
3.96904e-07
4.55908e-06
2.89702e-07
4.56727e-06
2.4712e-07
4.56708e-06
2.27668e-07
1.90586e-07
4.55976e-06
4.78653e-06
1.02195e-06
4.74021e-06
-3.3903e-07
4.76074e-06
6.65271e-08
4.73763e-06
3.60983e-07
4.77253e-06
5.16129e-07
4.73482e-06
-1.05848e-07
4.7551e-06
3.63783e-07
4.74168e-06
2.68168e-07
4.73258e-06
-1.47401e-08
4.74132e-06
4.6362e-07
4.7282e-06
3.42182e-07
4.74902e-06
3.5868e-07
4.75919e-06
5.42424e-07
4.75547e-06
4.10548e-07
4.77672e-06
3.80124e-07
4.78113e-06
3.92494e-07
4.77579e-06
2.95043e-07
4.78254e-06
2.40371e-07
4.78557e-06
2.24638e-07
1.96942e-07
4.77921e-06
5.01471e-06
9.76041e-07
4.96658e-06
-2.90908e-07
4.98808e-06
4.50332e-08
4.96516e-06
3.83905e-07
4.99875e-06
4.82538e-07
4.96367e-06
-7.07693e-08
4.98055e-06
3.46907e-07
4.96996e-06
2.7875e-07
4.95883e-06
-3.60819e-09
4.96942e-06
4.53032e-07
4.95611e-06
3.55492e-07
4.97473e-06
3.40056e-07
4.98773e-06
5.2943e-07
4.98271e-06
4.15562e-07
5.00188e-06
3.60957e-07
5.00966e-06
3.84713e-07
5.00354e-06
3.01165e-07
5.00796e-06
2.35949e-07
5.01343e-06
2.19163e-07
2.00997e-07
5.00938e-06
5.25361e-06
9.28751e-07
5.20397e-06
-2.41269e-07
5.22609e-06
2.29134e-08
5.20388e-06
4.06109e-07
5.23539e-06
4.51035e-07
5.20381e-06
-3.91916e-08
5.21684e-06
3.33879e-07
5.20891e-06
2.86674e-07
5.19623e-06
9.07774e-09
5.20812e-06
4.41136e-07
5.19525e-06
3.68364e-07
5.21131e-06
3.23999e-07
5.22694e-06
5.13803e-07
5.22127e-06
4.21224e-07
5.23765e-06
3.4458e-07
5.2487e-06
3.73665e-07
5.24276e-06
3.07102e-07
5.2444e-06
2.34306e-07
5.25119e-06
2.12373e-07
2.01961e-07
5.25023e-06
5.50371e-06
8.80228e-07
5.4529e-06
-1.90452e-07
5.47526e-06
5.49369e-10
5.45438e-06
4.2699e-07
5.48293e-06
4.22483e-07
5.4557e-06
-1.19635e-08
5.46466e-06
3.24924e-07
5.45894e-06
2.92386e-07
5.44532e-06
2.27057e-08
5.45801e-06
4.28447e-07
5.44605e-06
3.80322e-07
5.45935e-06
3.10698e-07
5.47736e-06
4.95793e-07
5.47164e-06
4.26944e-07
5.48484e-06
3.31382e-07
5.49871e-06
3.59789e-07
5.49386e-06
3.11958e-07
5.49281e-06
2.35349e-07
5.49956e-06
2.05629e-07
1.99832e-07
5.50169e-06
5.76553e-06
8.30654e-07
5.71393e-06
-1.38848e-07
5.73609e-06
-2.16164e-08
5.71722e-06
4.45864e-07
5.74191e-06
3.9779e-07
5.71955e-06
1.03943e-08
5.72472e-06
3.19754e-07
5.72052e-06
2.96595e-07
5.70665e-06
3.65702e-08
5.71969e-06
4.15403e-07
5.70895e-06
3.91062e-07
5.71948e-06
3.00173e-07
5.73951e-06
4.75758e-07
5.73437e-06
4.32083e-07
5.74415e-06
3.21611e-07
5.76019e-06
3.4375e-07
5.75717e-06
3.14969e-07
5.7539e-06
2.38622e-07
5.75953e-06
2.00004e-07
1.9536e-07
5.764e-06
6.03961e-06
7.80239e-07
5.98765e-06
-8.68909e-08
6.0091e-06
-4.30701e-08
5.99303e-06
4.61943e-07
6.01298e-06
3.77833e-07
5.99568e-06
2.7699e-08
5.99774e-06
3.17689e-07
5.99418e-06
3.00156e-07
5.98073e-06
5.00215e-08
5.99387e-06
4.0226e-07
5.98446e-06
4.00479e-07
5.99229e-06
2.92343e-07
6.01395e-06
4.54098e-07
6.01006e-06
4.35975e-07
6.01623e-06
3.15439e-07
6.03359e-06
3.26389e-07
6.03315e-06
3.15405e-07
6.02825e-06
2.43527e-07
6.03206e-06
1.96192e-07
1.89596e-07
6.03782e-06
6.32651e-06
7.29219e-07
6.27468e-06
-3.5067e-08
6.29484e-06
-6.32226e-08
6.28244e-06
4.74343e-07
6.29694e-06
3.63328e-07
6.28447e-06
4.01689e-08
6.28442e-06
3.17736e-07
6.28061e-06
3.03965e-07
6.26803e-06
6.26102e-08
6.28123e-06
3.89061e-07
6.27312e-06
4.08589e-07
6.27836e-06
2.87098e-07
6.30126e-06
4.31195e-07
6.29925e-06
4.37991e-07
6.30179e-06
3.12894e-07
6.31943e-06
3.0875e-07
6.32227e-06
3.12561e-07
6.31637e-06
2.49432e-07
6.31808e-06
1.94476e-07
1.83537e-07
6.32414e-06
6.62683e-06
6.7786e-07
6.57567e-06
1.60891e-08
6.59387e-06
-8.14172e-08
6.58611e-06
4.82097e-07
6.59465e-06
3.54794e-07
6.58642e-06
4.83987e-08
6.58543e-06
3.18721e-07
6.58059e-06
3.08807e-07
6.569e-06
7.4203e-08
6.58242e-06
3.75634e-07
6.57559e-06
4.15421e-07
6.57829e-06
2.84405e-07
6.60204e-06
4.07444e-07
6.60247e-06
4.37559e-07
6.60164e-06
3.13726e-07
6.61837e-06
2.92018e-07
6.62485e-06
3.06084e-07
6.61887e-06
2.55409e-07
6.6184e-06
1.9495e-07
1.77903e-07
6.62403e-06
6.94119e-06
6.26464e-07
6.89129e-06
6.59905e-08
6.90683e-06
-9.69647e-08
6.90457e-06
4.84359e-07
6.90701e-06
3.52354e-07
6.90208e-06
5.33286e-08
6.90143e-06
3.19374e-07
6.89495e-06
3.15288e-07
6.88416e-06
8.49882e-08
6.8981e-06
3.61699e-07
6.89258e-06
4.20938e-07
6.89276e-06
2.84231e-07
6.91683e-06
3.8337e-07
6.92025e-06
4.34143e-07
6.91658e-06
3.17388e-07
6.93115e-06
2.77454e-07
6.94124e-06
2.95991e-07
6.93628e-06
2.60366e-07
6.93378e-06
1.97449e-07
1.73282e-07
6.93841e-06
7.27024e-06
5.75357e-07
7.22222e-06
1.14017e-07
7.2344e-06
-1.09153e-07
7.2382e-06
4.80566e-07
7.23495e-06
3.55603e-07
7.23209e-06
5.61844e-08
7.23306e-06
3.1841e-07
7.22456e-06
3.23782e-07
7.21411e-06
9.54434e-08
7.22887e-06
3.46935e-07
7.2248e-06
4.2501e-07
7.22249e-06
2.86541e-07
7.2463e-06
3.5956e-07
7.25303e-06
4.27407e-07
7.24744e-06
3.22983e-07
7.25861e-06
2.66283e-07
7.27181e-06
2.82794e-07
7.26914e-06
2.63034e-07
7.26497e-06
2.01623e-07
1.70195e-07
7.26805e-06
7.61468e-06
5.24905e-07
7.56919e-06
1.59508e-07
7.57729e-06
-1.17255e-07
7.58736e-06
4.70495e-07
7.57933e-06
3.63636e-07
7.57714e-06
5.83696e-08
7.58082e-06
3.14727e-07
7.57039e-06
3.34213e-07
7.55945e-06
1.06384e-07
7.57526e-06
3.31126e-07
7.57306e-06
4.27216e-07
7.56827e-06
2.9133e-07
7.59104e-06
3.36791e-07
7.60126e-06
4.17187e-07
7.59486e-06
3.29384e-07
7.60196e-06
2.59179e-07
7.61703e-06
2.67724e-07
7.61778e-06
2.62289e-07
7.6127e-06
2.06695e-07
1.6903e-07
7.61387e-06
7.97521e-06
4.75503e-07
7.93291e-06
2.01813e-07
7.93625e-06
-1.20594e-07
7.95247e-06
4.54272e-07
7.941e-06
3.75107e-07
7.93799e-06
6.13853e-08
7.94516e-06
3.07555e-07
7.93335e-06
3.4602e-07
7.92099e-06
1.18746e-07
7.93785e-06
3.14264e-07
7.93803e-06
4.27039e-07
7.93091e-06
2.98446e-07
7.95177e-06
3.15928e-07
7.96537e-06
4.03587e-07
7.95945e-06
3.35309e-07
7.96249e-06
2.56134e-07
7.97772e-06
2.52497e-07
7.98236e-06
2.57653e-07
7.97764e-06
2.11406e-07
1.69852e-07
7.97682e-06
8.35261e-06
4.27575e-07
8.31413e-06
2.40293e-07
8.31208e-06
-1.18549e-07
8.33414e-06
4.32215e-07
8.32079e-06
3.88456e-07
8.31539e-06
6.67823e-08
8.32645e-06
2.96499e-07
8.31433e-06
3.58144e-07
8.29964e-06
1.3343e-07
8.31718e-06
2.96731e-07
8.32028e-06
4.23939e-07
8.3112e-06
3.07526e-07
8.32925e-06
2.97875e-07
8.34583e-06
3.87006e-07
8.34176e-06
3.3938e-07
8.34135e-06
2.56546e-07
8.35509e-06
2.38753e-07
8.36323e-06
2.49513e-07
8.36021e-06
2.14431e-07
1.72184e-07
8.35788e-06
8.74766e-06
3.81575e-07
8.71368e-06
2.74271e-07
8.70578e-06
-1.10647e-07
8.73306e-06
4.04938e-07
8.71947e-06
4.02045e-07
8.71042e-06
7.58355e-08
8.72512e-06
2.81793e-07
8.71409e-06
3.69178e-07
8.69649e-06
1.51026e-07
8.71375e-06
2.79468e-07
8.7202e-06
4.17496e-07
8.70995e-06
3.17777e-07
8.72407e-06
2.83753e-07
8.74329e-06
3.67786e-07
8.74221e-06
3.40458e-07
8.7395e-06
2.59258e-07
8.75048e-06
2.27765e-07
8.76113e-06
2.38869e-07
8.7607e-06
2.14859e-07
1.75115e-07
8.75777e-06
9.16123e-06
3.37964e-07
9.13248e-06
3.03022e-07
9.11846e-06
-9.66255e-08
9.15001e-06
3.73384e-07
9.1379e-06
4.14161e-07
9.12408e-06
8.96495e-08
9.14172e-06
2.64152e-07
9.1332e-06
3.77702e-07
9.11258e-06
1.71645e-07
9.12817e-06
2.63874e-07
9.13817e-06
4.07505e-07
9.12783e-06
3.28109e-07
9.13736e-06
2.7423e-07
9.15864e-06
3.465e-07
9.1614e-06
3.377e-07
9.15767e-06
2.62991e-07
9.16527e-06
2.20165e-07
9.17712e-06
2.27014e-07
9.17955e-06
2.12432e-07
1.77671e-07
9.17699e-06
9.59423e-06
2.97189e-07
9.57142e-06
3.25833e-07
9.55132e-06
-7.65267e-08
9.58592e-06
3.38791e-07
9.57697e-06
4.23106e-07
9.55762e-06
1.09004e-07
9.5767e-06
2.45073e-07
9.57207e-06
3.82328e-07
9.54893e-06
1.94783e-07
9.56134e-06
2.51465e-07
9.57501e-06
3.93836e-07
9.56622e-06
3.36906e-07
9.57124e-06
2.69206e-07
9.59287e-06
3.24865e-07
9.59992e-06
3.30658e-07
9.5965e-06
2.66408e-07
9.60084e-06
2.15827e-07
9.61243e-06
2.1542e-07
9.61754e-06
2.0732e-07
1.79075e-07
9.61614e-06
1.00477e-05
2.59652e-07
1.00314e-05
3.42133e-07
1.00057e-05
-5.08872e-08
1.00416e-05
3.02958e-07
1.00374e-05
4.27316e-07
1.00123e-05
1.34067e-07
1.00305e-05
2.26836e-07
1.0031e-05
3.81835e-07
1.00071e-05
2.18708e-07
1.0015e-05
2.43575e-07
1.00319e-05
3.76892e-07
1.00262e-05
3.42656e-07
1.00275e-05
2.67846e-07
1.00476e-05
3.04826e-07
1.00585e-05
3.19725e-07
1.00566e-05
2.68316e-07
1.00584e-05
2.14019e-07
1.00685e-05
2.05345e-07
1.00756e-05
2.00212e-07
1.78801e-07
1.00759e-05
1.05226e-05
2.25673e-07
1.05131e-05
3.51603e-07
1.04831e-05
-2.0828e-08
1.05179e-05
2.68163e-07
1.05197e-05
4.25534e-07
1.049e-05
1.63712e-07
1.05047e-05
2.12142e-07
1.05108e-05
3.75708e-07
1.04884e-05
2.41196e-07
1.04914e-05
2.40547e-07
1.05102e-05
3.58101e-07
1.05082e-05
3.44589e-07
1.05072e-05
2.68887e-07
1.05244e-05
2.8761e-07
1.05381e-05
3.06021e-07
1.05386e-05
2.67883e-07
1.05389e-05
2.13679e-07
1.05467e-05
1.97541e-07
1.0555e-05
1.9195e-07
1.76757e-07
1.0557e-05
1.10202e-05
1.95467e-07
1.10176e-05
3.54269e-07
1.09846e-05
1.21159e-08
1.10161e-05
2.36719e-07
1.10247e-05
4.1687e-07
1.09932e-05
1.9526e-07
1.10018e-05
2.03543e-07
1.10127e-05
3.64805e-07
1.09933e-05
2.60561e-07
1.09922e-05
2.41653e-07
1.10111e-05
3.39203e-07
1.10131e-05
3.4258e-07
1.1011e-05
2.71008e-07
1.10248e-05
2.73803e-07
1.10399e-05
2.90873e-07
1.10431e-05
2.64758e-07
1.1043e-05
2.1377e-07
1.10486e-05
1.91942e-07
1.10568e-05
1.83711e-07
1.72953e-07
1.10606e-05
1.15417e-05
1.69118e-07
1.15454e-05
3.50558e-07
1.15113e-05
4.6189e-08
1.15375e-05
2.10581e-07
1.15529e-05
4.01472e-07
1.15221e-05
2.2605e-07
1.15242e-05
2.01418e-07
1.15378e-05
3.51204e-07
1.15225e-05
2.75841e-07
1.15184e-05
2.45837e-07
1.1536e-05
3.21543e-07
1.15416e-05
3.3703e-07
1.15397e-05
2.72926e-07
1.15501e-05
2.63342e-07
1.15654e-05
2.75609e-07
1.1571e-05
2.59086e-07
1.15714e-05
2.13427e-07
1.15753e-05
1.87992e-07
1.15826e-05
1.7643e-07
1.67727e-07
1.15878e-05
1.20884e-05
1.46571e-07
1.20977e-05
3.41212e-07
1.20643e-05
7.96245e-08
1.20838e-05
1.91081e-07
1.21047e-05
3.80561e-07
1.20773e-05
2.53435e-07
1.20737e-05
2.05048e-07
1.20877e-05
3.3713e-07
1.20769e-05
2.86726e-07
1.20708e-05
2.51928e-07
1.20864e-05
3.05948e-07
1.20947e-05
3.28702e-07
1.20939e-05
2.73713e-07
1.21016e-05
2.55695e-07
1.21159e-05
2.61258e-07
1.21236e-05
2.51395e-07
1.2125e-05
2.12047e-07
1.2128e-05
1.85015e-07
1.2134e-05
1.70412e-07
1.61834e-07
1.21399e-05
1.26615e-05
1.27622e-07
1.26755e-05
3.27295e-07
1.26443e-05
1.10782e-07
1.26567e-05
1.78636e-07
1.26813e-05
3.56046e-07
1.26594e-05
2.75314e-07
1.26512e-05
2.13198e-07
1.2664e-05
3.24313e-07
1.26572e-05
2.93575e-07
1.26504e-05
2.58728e-07
1.26635e-05
2.92854e-07
1.26738e-05
3.1843e-07
1.26746e-05
2.72885e-07
1.26803e-05
2.50029e-07
1.26931e-05
2.48428e-07
1.2702e-05
2.42451e-07
1.27048e-05
2.09283e-07
1.27073e-05
1.82499e-07
1.27123e-05
1.65412e-07
1.56072e-07
1.27181e-05
1.32626e-05
1.11954e-07
1.32799e-05
3.09986e-07
1.32524e-05
1.38341e-07
1.32583e-05
1.72662e-07
1.32841e-05
3.30297e-07
1.32687e-05
2.90728e-07
1.32579e-05
2.23937e-07
1.32683e-05
3.13982e-07
1.32647e-05
2.97103e-07
1.32582e-05
2.65271e-07
1.32688e-05
2.82238e-07
1.32802e-05
3.07021e-07
1.32828e-05
2.70335e-07
1.32873e-05
2.45466e-07
1.32983e-05
2.37404e-07
1.33079e-05
2.32907e-07
1.3312e-05
2.05185e-07
1.33145e-05
1.79933e-07
1.33188e-05
1.61164e-07
1.50773e-07
1.33241e-05
1.38929e-05
9.9182e-08
1.39125e-05
2.90445e-07
1.38894e-05
1.61375e-07
1.38898e-05
1.7228e-07
1.39148e-05
3.05334e-07
1.39058e-05
2.99695e-07
1.38944e-05
2.35392e-07
1.39017e-05
3.06682e-07
1.39007e-05
2.98081e-07
1.38952e-05
2.70804e-07
1.39037e-05
2.73744e-07
1.39154e-05
2.95248e-07
1.39197e-05
2.66028e-07
1.39238e-05
2.41393e-07
1.39331e-05
2.2813e-07
1.39427e-05
2.23275e-07
1.39479e-05
2.00035e-07
1.39508e-05
1.76952e-07
1.39546e-05
1.57389e-07
1.46004e-07
1.39594e-05
1.4554e-05
8.88478e-08
1.4574e-05
2.70439e-07
1.45557e-05
1.79653e-07
1.45526e-05
1.75364e-07
1.45753e-05
2.82638e-07
1.4572e-05
3.03031e-07
1.4561e-05
2.46362e-07
1.4566e-05
3.01751e-07
1.45667e-05
2.97319e-07
1.45626e-05
2.74968e-07
1.45693e-05
2.66978e-07
1.45808e-05
2.83772e-07
1.45868e-05
2.60035e-07
1.45908e-05
2.37379e-07
1.45988e-05
2.20166e-07
1.46079e-05
2.14127e-07
1.4614e-05
1.93978e-07
1.46175e-05
1.73435e-07
1.46211e-05
1.53816e-07
1.41705e-07
1.46254e-05
1.52471e-05
8.05951e-08
1.52628e-05
2.54801e-07
1.52514e-05
1.91006e-07
1.52487e-05
1.78129e-07
1.52681e-05
2.63192e-07
1.5267e-05
3.0409e-07
1.5258e-05
2.55403e-07
1.52621e-05
2.97662e-07
1.52645e-05
2.94937e-07
1.52619e-05
2.77547e-07
1.52673e-05
2.61531e-07
1.52782e-05
2.72889e-07
1.52854e-05
2.52826e-07
1.52899e-05
2.32897e-07
1.52968e-05
2.13309e-07
1.53052e-05
2.05681e-07
1.53117e-05
1.87466e-07
1.53159e-05
1.69271e-07
1.53194e-05
1.5028e-07
1.37709e-07
1.53234e-05
1.59747e-05
7.32657e-08
1.60026e-05
2.26875e-07
1.59992e-05
1.9438e-07
1.59864e-05
1.90955e-07
1.59925e-05
2.57039e-07
1.59926e-05
3.04057e-07
1.5987e-05
2.60927e-07
1.59916e-05
2.93139e-07
1.59955e-05
2.91055e-07
1.59942e-05
2.78749e-07
1.59986e-05
2.57199e-07
1.60087e-05
2.62747e-07
1.60168e-05
2.44764e-07
1.6022e-05
2.27639e-07
1.60283e-05
2.0704e-07
1.60361e-05
1.97886e-07
1.60427e-05
1.80866e-07
1.60475e-05
1.64458e-07
1.60513e-05
1.46518e-07
1.33947e-07
1.6055e-05
1.67356e-05
6.82881e-08
1.67441e-05
2.18346e-07
1.67406e-05
1.97881e-07
1.67362e-05
1.95325e-07
1.67482e-05
2.4507e-07
1.67531e-05
2.99157e-07
1.67507e-05
2.63381e-07
1.6756e-05
2.87834e-07
1.67617e-05
2.85332e-07
1.6762e-05
2.78433e-07
1.67657e-05
2.53483e-07
1.67748e-05
2.53619e-07
1.67834e-05
2.36195e-07
1.67894e-05
2.21668e-07
1.67954e-05
2.01001e-07
1.68026e-05
1.90722e-07
1.6809e-05
1.74445e-07
1.68141e-05
1.59331e-07
1.68183e-05
1.42341e-07
1.30331e-07
1.68219e-05
1.75346e-05
6.40743e-08
1.75518e-05
2.01099e-07
1.75464e-05
2.03341e-07
1.7537e-05
2.04698e-07
1.75452e-05
2.3686e-07
1.75515e-05
2.92878e-07
1.75511e-05
2.63791e-07
1.75567e-05
2.82206e-07
1.75638e-05
2.78227e-07
1.75658e-05
2.76433e-07
1.75692e-05
2.50095e-07
1.75771e-05
2.45686e-07
1.7586e-05
2.27328e-07
1.75927e-05
2.14935e-07
1.75989e-05
1.9485e-07
1.76057e-05
1.83875e-07
1.7612e-05
1.68195e-07
1.76171e-05
1.54163e-07
1.76217e-05
1.37761e-07
1.26504e-07
1.76255e-05
1.83712e-05
6.12356e-08
1.838e-05
1.92295e-07
1.83803e-05
2.03012e-07
1.83754e-05
2.09604e-07
1.83825e-05
2.2979e-07
1.8389e-05
2.86361e-07
1.83895e-05
2.63274e-07
1.83954e-05
2.76334e-07
1.84038e-05
2.69841e-07
1.8408e-05
2.72254e-07
1.84116e-05
2.46493e-07
1.84185e-05
2.38705e-07
1.8427e-05
2.18877e-07
1.84345e-05
2.07438e-07
1.84408e-05
1.88493e-07
1.84474e-05
1.77309e-07
1.84537e-05
1.6191e-07
1.84587e-05
1.49162e-07
1.84635e-05
1.32953e-07
1.22315e-07
1.84677e-05
1.92487e-05
5.89456e-08
1.92587e-05
1.82317e-07
1.92588e-05
2.02901e-07
1.92545e-05
2.13854e-07
1.92608e-05
2.23522e-07
1.92678e-05
2.79333e-07
1.92693e-05
2.61744e-07
1.92746e-05
2.71047e-07
1.92835e-05
2.60956e-07
1.92897e-05
2.66029e-07
1.92939e-05
2.42316e-07
1.93002e-05
2.32456e-07
1.93079e-05
2.11108e-07
1.93158e-05
1.99595e-07
1.93226e-05
1.81633e-07
1.9329e-05
1.70902e-07
1.93355e-05