/*--------------------------------*- C++ -*----------------------------------*\
| =========                 |                                                 |
| \\      /  F ield         | OpenFOAM: The Open Source CFD Toolbox           |
|  \\    /   O peration     | Version:  2506                                  |
|   \\  /    A nd           | Website:  www.openfoam.com                      |
|    \\/     M anipulation  |                                                 |
\*---------------------------------------------------------------------------*/
FoamFile
{
    version     2.0;
    format      ascii;
    arch        "LSB;label=32;scalar=64";
    class       volVectorField;
    location    "9.7";
    object      U;
}
// * * * * * * * * * * * * * * * * * * * * * * * * * * * * * * * * * * * * * //

dimensions      [0 1 -1 0 0 0 0];

internalField   nonuniform List<vector> 
9600
(
(0.923236 0.0188508 0)
(1.12787 -0.0130752 0)
(0.885438 -0.00180573 0)
(1.04871 0.00463012 0)
(0.961925 0.0185848 0)
(1.08059 -0.0268927 0)
(0.724356 0.0196958 0)
(1.23376 0.00399818 0)
(0.70181 -0.00698663 0)
(1.19412 0.015783 0)
(0.823227 0.0026154 0)
(1.07924 0.0169625 0)
(0.884865 0.0133576 0)
(1.06045 0.0169764 0)
(0.888616 0.0250354 0)
(1.04656 0.00835976 0)
(0.867775 0.0259806 0)
(1.04994 -0.000384444 0)
(0.833434 0.0146844 0)
(1.05537 -0.0112846 0)
(0.925867 0.0185338 0)
(1.11745 -0.0125622 0)
(0.888516 -0.00129593 0)
(1.04262 0.00420484 0)
(0.963825 0.0180861 0)
(1.0747 -0.0239291 0)
(0.729612 0.0184002 0)
(1.21932 0.00500686 0)
(0.714204 -0.00695595 0)
(1.18376 0.0146206 0)
(0.846612 0.00399575 0)
(1.06919 0.0167405 0)
(0.909476 0.0134356 0)
(1.04141 0.0171955 0)
(0.924002 0.0251856 0)
(1.00683 0.00898362 0)
(0.922123 0.0256547 0)
(0.983888 0.000458132 0)
(0.924525 0.0156079 0)
(0.951761 -0.0122785 0)
(0.930985 0.0181516 0)
(1.1039 -0.0121512 0)
(0.897985 -0.000891756 0)
(1.02953 0.0036133 0)
(0.966603 0.0177592 0)
(1.06763 -0.0216435 0)
(0.745444 0.0162242 0)
(1.19113 0.00551667 0)
(0.751391 -0.00706146 0)
(1.15054 0.0130841 0)
(0.890533 0.0056171 0)
(1.04152 0.0158355 0)
(0.944919 0.0137756 0)
(1.01435 0.0171455 0)
(0.960221 0.0256843 0)
(0.981527 0.00948019 0)
(0.952826 0.0254437 0)
(0.970692 0.00112692 0)
(0.953014 0.0144262 0)
(0.958401 -0.00791984 0)
(0.938351 0.0178489 0)
(1.08798 -0.0117751 0)
(0.913677 -0.000466464 0)
(1.01215 0.00313728 0)
(0.969937 0.0173541 0)
(1.05911 -0.0194263 0)
(0.774398 0.014472 0)
(1.15015 0.00566368 0)
(0.811801 -0.00683706 0)
(1.09679 0.011465 0)
(0.937799 0.00706128 0)
(1.00944 0.0149592 0)
(0.965894 0.0140938 0)
(0.993044 0.0168691 0)
(0.975192 0.0261823 0)
(0.972749 0.0097954 0)
(0.960547 0.0255618 0)
(0.968631 0.0012118 0)
(0.960305 0.0146374 0)
(0.963122 -0.00653406 0)
(0.947408 0.0176253 0)
(1.07131 -0.0114823 0)
(0.932747 1.8834e-05 0)
(0.995119 0.00278059 0)
(0.973454 0.0168374 0)
(1.0499 -0.0175009 0)
(0.81369 0.0133922 0)
(1.10322 0.00535351 0)
(0.877273 -0.00624748 0)
(1.04006 0.00990095 0)
(0.971451 0.00809313 0)
(0.988104 0.0146601 0)
(0.970206 0.0142724 0)
(0.977847 0.0167189 0)
(0.974065 0.0264273 0)
(0.968696 0.0103645 0)
(0.959677 0.0253094 0)
(0.968515 0.00169631 0)
(0.963325 0.0143083 0)
(0.967711 -0.00531409 0)
(0.957349 0.0174486 0)
(1.0557 -0.0112713 0)
(0.951482 0.000552287 0)
(0.982815 0.00253807 0)
(0.976711 0.0162458 0)
(1.04091 -0.0159122 0)
(0.855863 0.0128104 0)
(1.06042 0.00464593 0)
(0.930186 -0.00547569 0)
(0.99873 0.00872718 0)
(0.98838 0.00865906 0)
(0.980361 0.0148725 0)
(0.969166 0.014514 0)
(0.967737 0.0167352 0)
(0.967648 0.0265105 0)
(0.966823 0.0108775 0)
(0.959436 0.024856 0)
(0.971474 0.00204832 0)
(0.968088 0.0135311 0)
(0.973569 -0.0039784 0)
(0.967292 0.0173002 0)
(1.04252 -0.0111203 0)
(0.967031 0.00108037 0)
(0.977249 0.00241268 0)
(0.979722 0.015629 0)
(1.0328 -0.0147 0)
(0.8933 0.0125942 0)
(1.02912 0.00375971 0)
(0.964362 -0.0047201 0)
(0.978659 0.00804524 0)
(0.994526 0.00882904 0)
(0.980743 0.0152992 0)
(0.970357 0.0149073 0)
(0.96389 0.0168579 0)
(0.963677 0.0264284 0)
(0.968174 0.0111729 0)
(0.963164 0.0242247 0)
(0.977408 0.00234361 0)
(0.975242 0.0126426 0)
(0.980226 -0.00260356 0)
(0.976468 0.0171663 0)
(1.03234 -0.011 0)
(0.978274 0.00155046 0)
(0.977564 0.00238779 0)
(0.983081 0.0150425 0)
(1.0257 -0.013817 0)
(0.922048 0.0126455 0)
(1.01095 0.00289745 0)
(0.982873 -0.00409947 0)
(0.973969 0.00771143 0)
(0.996094 0.00877348 0)
(0.983575 0.0157234 0)
(0.974312 0.0153724 0)
(0.965882 0.0170463 0)
(0.965109 0.0262155 0)
(0.973018 0.0112912 0)
(0.97041 0.0234286 0)
(0.98491 0.00262448 0)
(0.983537 0.0117077 0)
(0.98702 -0.00121364 0)
(0.984353 0.0170314 0)
(1.025 -0.0108827 0)
(0.985591 0.00193354 0)
(0.981276 0.00242385 0)
(0.987386 0.0145331 0)
(1.01945 -0.0131635 0)
(0.942277 0.0128198 0)
(1.00323 0.00216309 0)
(0.991705 -0.00362357 0)
(0.975948 0.00757614 0)
(0.996158 0.00865431 0)
(0.986007 0.0160555 0)
(0.978967 0.0158212 0)
(0.971239 0.017244 0)
(0.970951 0.0259253 0)
(0.980266 0.0113177 0)
(0.979442 0.0225244 0)
(0.992628 0.00295146 0)
(0.991612 0.0107754 0)
(0.993406 0.0001774 0)
(0.99069 0.0168831 0)
(1.01997 -0.0107478 0)
(0.990054 0.00222201 0)
(0.985964 0.00247484 0)
(0.99264 0.0141262 0)
(1.01392 -0.0126449 0)
(0.956325 0.0129886 0)
(1.0018 0.00156043 0)
(0.99572 -0.00324825 0)
(0.979139 0.00755735 0)
(0.99567 0.00854448 0)
(0.987412 0.0162853 0)
(0.982997 0.0161961 0)
(0.977558 0.0173738 0)
(0.978813 0.0255679 0)
(0.988306 0.011311 0)
(0.988646 0.0215596 0)
(0.999726 0.00337685 0)
(0.998654 0.00988041 0)
(0.99894 0.00156184 0)
(0.995453 0.0167144 0)
(1.01664 -0.010584 0)
(0.992716 0.00242175 0)
(0.990171 0.00250841 0)
(0.99821 0.0138242 0)
(1.00928 -0.0121948 0)
(0.966535 0.01308 0)
(1.00321 0.0010846 0)
(0.997672 -0.00292207 0)
(0.9818 0.00761481 0)
(0.995074 0.00845794 0)
(0.98819 0.0164263 0)
(0.986288 0.016455 0)
(0.983626 0.0173861 0)
(0.986871 0.0251381 0)
(0.995938 0.0112912 0)
(0.996969 0.0205783 0)
(1.00576 0.0039269 0)
(1.00433 0.00906865 0)
(1.00335 0.00292529 0)
(0.998776 0.0165238 0)
(1.01451 -0.0103885 0)
(0.994333 0.00254742 0)
(0.993368 0.00250991 0)
(1.00325 0.0136113 0)
(1.00582 -0.0117744 0)
(0.974268 0.0130728 0)
(1.00532 0.00072578 0)
(0.99878 -0.00261646 0)
(0.983923 0.0077326 0)
(0.994787 0.00839133 0)
(0.98895 0.0164828 0)
(0.989231 0.0165878 0)
(0.989148 0.0172743 0)
(0.99424 0.0246259 0)
(1.00258 0.0112829 0)
(1.00387 0.019624 0)
(1.01053 0.00459367 0)
(1.00859 0.00836855 0)
(1.00655 0.00419966 0)
(1.00089 0.0163123 0)
(1.01317 -0.0101636 0)
(0.995397 0.00261725 0)
(0.995527 0.00247762 0)
(1.00719 0.0134596 0)
(1.00366 -0.0113624 0)
(0.980065 0.0129749 0)
(1.00716 0.000468908 0)
(0.999501 -0.00232763 0)
(0.985693 0.00790019 0)
(0.99502 0.00833387 0)
(0.990073 0.0164584 0)
(0.9921 0.0166048 0)
(0.994087 0.0170547 0)
(1.00054 0.0240286 0)
(1.00797 0.0113233 0)
(1.00916 0.0187097 0)
(1.01396 0.00536105 0)
(1.01156 0.00779695 0)
(1.00867 0.00534784 0)
(1.00205 0.0160825 0)
(1.01233 -0.00991374 0)
(0.996249 0.00264581 0)
(0.996781 0.00242108 0)
(1.00988 0.0133398 0)
(1.00259 -0.0109478 0)
(0.984244 0.0128047 0)
(1.00841 0.000301205 0)
(0.999977 -0.00205286 0)
(0.987077 0.00810216 0)
(0.995695 0.0082692 0)
(0.991598 0.0163646 0)
(0.994854 0.016524 0)
(0.998292 0.0167437 0)
(1.00553 0.0233835 0)
(1.01196 0.0114179 0)
(1.01281 0.017858 0)
(1.01612 0.00617232 0)
(1.01345 0.00738761 0)
(1.00992 0.00636339 0)
(1.0025 0.0158376 0)
(1.01178 -0.00964522 0)
(0.997125 0.00264466 0)
(0.997285 0.00235408 0)
(1.01155 0.0132256 0)
(1.00217 -0.0105253 0)
(0.98725 0.0125804 0)
(1.0091 0.000211196 0)
(1.00022 -0.00179757 0)
(0.988022 0.00832152 0)
(0.996611 0.00818155 0)
(0.993324 0.0162152 0)
(0.997259 0.0163671 0)
(1.00151 0.0163735 0)
(1.00902 0.0227243 0)
(1.01447 0.0115619 0)
(1.01494 0.0170926 0)
(1.01717 0.00700362 0)
(1.01451 0.00714641 0)
(1.01058 0.00723136 0)
(1.00244 0.0155811 0)
(1.01138 -0.00936501 0)
(0.998126 0.00262336 0)
(0.997214 0.00229 0)
(1.0125 0.013099 0)
(1.002 -0.0100944 0)
(0.989575 0.0123148 0)
(1.00937 0.000194816 0)
(1.00022 -0.00157137 0)
(0.988617 0.00854841 0)
(0.997617 0.00805921 0)
(0.995003 0.0160207 0)
(0.999121 0.0161726 0)
(1.00362 0.015981 0)
(1.01099 0.0220609 0)
(1.01561 0.0117536 0)
(1.01581 0.0164203 0)
(1.01732 0.00782143 0)
(1.01497 0.00703317 0)
(1.01084 0.00793598 0)
(1.00203 0.015316 0)
(1.01111 -0.00907903 0)
(0.999204 0.0025892 0)
(0.996768 0.00224115 0)
(1.0129 0.0129483 0)
(1.0019 -0.00965432 0)
(0.991505 0.0120118 0)
(1.00935 0.00025424 0)
(0.999993 -0.00137201 0)
(0.989011 0.00877539 0)
(0.998628 0.00790308 0)
(0.996445 0.0157874 0)
(1.00038 0.0159841 0)
(1.0047 0.0155856 0)
(1.01166 0.021419 0)
(1.01563 0.0119596 0)
(1.01574 0.0158294 0)
(1.01682 0.00858053 0)
(1.01498 0.00701259 0)
(1.01085 0.00848802 0)
(1.00143 0.0150439 0)
(1.01095 -0.00879143 0)
(1.00022 0.00254848 0)
(0.996152 0.00221541 0)
(1.01284 0.0127669 0)
(1.00189 -0.00920506 0)
(0.993042 0.0116746 0)
(1.0091 0.000391632 0)
(0.999668 -0.00120181 0)
(0.989279 0.008991 0)
(0.999538 0.00771604 0)
(0.997537 0.0155367 0)
(1.00108 0.0158132 0)
(1.00501 0.0152049 0)
(1.0114 0.0208115 0)
(1.01489 0.0121514 0)
(1.01506 0.015287 0)
(1.0159 0.00927659 0)
(1.01467 0.00706118 0)
(1.0107 0.00888858 0)
(1.00077 0.0147652 0)
(1.01086 -0.00850306 0)
(1.00106 0.00250496 0)
(0.995533 0.00221801 0)
(1.0124 0.0125498 0)
(1.00204 -0.00874647 0)
(0.994088 0.0113114 0)
(1.00866 0.000603106 0)
(0.999411 -0.00106385 0)
(0.989425 0.00919259 0)
(1.00021 0.00750797 0)
(0.998248 0.0152747 0)
(1.0013 0.0156781 0)
(1.00484 0.0148425 0)
(1.01061 0.0202412 0)
(1.01376 0.0123295 0)
(1.01407 0.0147678 0)
(1.01479 0.00989401 0)
(1.01416 0.00715591 0)
(1.01047 0.00913978 0)
(1.00017 0.0144788 0)
(1.01081 -0.00821144 0)
(1.00168 0.00245744 0)
(0.995026 0.00225551 0)
(1.01174 0.0122904 0)
(1.00231 -0.00827458 0)
(0.994652 0.0109293 0)
(1.00808 0.000872371 0)
(0.999329 -0.000951647 0)
(0.989474 0.00938225 0)
(1.00059 0.00730279 0)
(0.998636 0.0149868 0)
(1.00119 0.0155942 0)
(1.00445 0.0144894 0)
(1.00962 0.0197195 0)
(1.01255 0.0124952 0)
(1.01302 0.0142707 0)
(1.01367 0.0104395 0)
(1.01359 0.00729038 0)
(1.01025 0.00925742 0)
(0.99971 0.0141833 0)
(1.01073 -0.00791309 0)
(1.00214 0.0024034 0)
(0.994688 0.00232819 0)
(1.01103 0.0119898 0)
(1.00262 -0.00778626 0)
(0.994881 0.0105316 0)
(1.00744 0.00118519 0)
(0.999425 -0.000869835 0)
(0.989504 0.00956988 0)
(1.00071 0.0071077 0)
(0.99883 0.0146667 0)
(1.0009 0.0155583 0)
(1.00406 0.0141359 0)
(1.00868 0.0192205 0)
(1.01149 0.0126567 0)
(1.01209 0.013784 0)
(1.01269 0.0109355 0)
(1.01303 0.00747329 0)
(1.01011 0.00924596 0)
(0.999389 0.0138773 0)
(1.01062 -0.00760451 0)
(1.00247 0.00233979 0)
(0.994529 0.00243393 0)
(1.01039 0.0116498 0)
(1.00288 -0.00727438 0)
(0.994949 0.0101195 0)
(1.00684 0.0015267 0)
(0.999628 -0.00081925 0)
(0.989601 0.009762 0)
(1.0007 0.00693205 0)
(0.998972 0.0143072 0)
(1.00057 0.0155615 0)
(1.00379 0.0137763 0)
(1.00792 0.0187262 0)
(1.01066 0.0128375 0)
(1.01138 0.0132757 0)
(1.01193 0.011355 0)
(1.01253 0.00772189 0)
(1.01011 0.00911988 0)
(0.999183 0.0135595 0)
(1.01046 -0.00728131 0)
(1.00273 0.00226199 0)
(0.994531 0.00257257 0)
(1.00984 0.0112724 0)
(1.00307 -0.0067366 0)
(0.994966 0.00969389 0)
(1.00635 0.00188949 0)
(0.999856 -0.000792713 0)
(0.989805 0.00995077 0)
(1.00065 0.00680087 0)
(0.999163 0.0138937 0)
(1.00026 0.015594 0)
(1.00369 0.013428 0)
(1.00738 0.0182315 0)
(1.01006 0.0130286 0)
(1.01087 0.0127607 0)
(1.01138 0.0116685 0)
(1.0121 0.00805244 0)
(1.01021 0.0089126 0)
(0.999056 0.0132284 0)
(1.01029 -0.0069413 0)
(1.00292 0.002167 0)
(0.994662 0.00273946 0)
(1.00936 0.010866 0)
(1.00324 -0.00617527 0)
(0.994973 0.0092525 0)
(1.00596 0.00227128 0)
(1.00006 -0.000789815 0)
(0.990107 0.0101258 0)
(1.00059 0.00673153 0)
(0.999442 0.0134174 0)
(0.999987 0.0156509 0)
(1.00373 0.0131062 0)
(1.00702 0.0176969 0)
(1.00963 0.013245 0)
(1.01053 0.0122669 0)
(1.01103 0.0118654 0)
(1.01172 0.00847136 0)
(1.01039 0.00868242 0)
(0.998979 0.0128841 0)
(1.0101 -0.00658367 0)
(1.00306 0.00205269 0)
(0.994886 0.00293339 0)
(1.00891 0.0104327 0)
(1.0034 -0.00558592 0)
(0.994977 0.00879351 0)
(1.00568 0.00266591 0)
(1.00023 -0.000796634 0)
(0.990474 0.0102739 0)
(1.00054 0.00672483 0)
(0.999802 0.0128933 0)
(0.999746 0.0157153 0)
(1.00385 0.0128052 0)
(1.00682 0.0171107 0)
(1.00931 0.0134981 0)
(1.0103 0.0118123 0)
(1.01081 0.0119318 0)
(1.01137 0.00896002 0)
(1.0106 0.00849165 0)
(0.998938 0.0125249 0)
(1.00991 -0.00620433 0)
(1.00314 0.00191622 0)
(0.99517 0.00315342 0)
(1.00845 0.00997654 0)
(1.00359 -0.00497661 0)
(0.994988 0.00832908 0)
(1.00546 0.00306236 0)
(1.00038 -0.000797776 0)
(0.990866 0.0103801 0)
(1.00049 0.00677577 0)
(1.00021 0.0123289 0)
(0.999525 0.0157685 0)
(1.00398 0.0125481 0)
(1.00672 0.016475 0)
(1.00904 0.013747 0)
(1.01012 0.011457 0)
(1.01071 0.0118473 0)
(1.01105 0.00947078 0)
(1.01076 0.00841223 0)
(0.998925 0.0121504 0)
(1.00972 -0.00580366 0)
(1.00317 0.00175746 0)
(0.995485 0.00339787 0)
(1.00799 0.00950068 0)
(1.00379 -0.00435504 0)
(0.995024 0.00786654 0)
(1.00528 0.0034579 0)
(1.00054 -0.000781958 0)
(0.991258 0.0104339 0)
(1.00042 0.006894 0)
(1.00065 0.0117329 0)
(0.999325 0.0157915 0)
(1.00407 0.0123578 0)
(1.0067 0.0157878 0)
(1.00878 0.0139785 0)
(1.00995 0.0112202 0)
(1.01066 0.0116192 0)
(1.01076 0.00994254 0)
(1.01086 0.00849386 0)
(0.998938 0.0117603 0)
(1.00952 -0.0053798 0)
(1.00317 0.00157749 0)
(0.995804 0.00366144 0)
(1.00755 0.00900897 0)
(1.00398 -0.00372272 0)
(0.995109 0.00740664 0)
(1.00511 0.00384091 0)
(1.00071 -0.000744477 0)
(0.991634 0.0104281 0)
(1.00035 0.00708497 0)
(1.0011 0.0111196 0)
(0.999155 0.0157557 0)
(1.0041 0.012246 0)
(1.00673 0.0150494 0)
(1.00854 0.0141766 0)
(1.00976 0.0110873 0)
(1.01066 0.0112949 0)
(1.01053 0.0103198 0)
(1.01086 0.00874874 0)
(0.998972 0.0113541 0)
(1.00931 -0.00493191 0)
(1.00315 0.00137603 0)
(0.996103 0.00394262 0)
(1.00713 0.00850722 0)
(1.00415 -0.00309333 0)
(0.995255 0.00697153 0)
(1.00493 0.00418703 0)
(1.00092 -0.000671796 0)
(0.991999 0.0103558 0)
(1.00027 0.00732835 0)
(1.00154 0.0105063 0)
(0.999029 0.0156537 0)
(1.00405 0.0122087 0)
(1.00681 0.0142783 0)
(1.0083 0.0142995 0)
(1.00952 0.0110873 0)
(1.01068 0.0109163 0)
(1.01037 0.0105385 0)
(1.01076 0.00912635 0)
(0.999021 0.0109315 0)
(1.00908 -0.0044596 0)
(1.00314 0.00115449 0)
(0.996369 0.00423849 0)
(1.00676 0.00800146 0)
(1.00427 -0.00247721 0)
(0.995463 0.00656812 0)
(1.00474 0.00450372 0)
(1.00115 -0.000557373 0)
(0.992358 0.0102292 0)
(1.00018 0.00760246 0)
(1.00198 0.00992159 0)
(0.998963 0.0154852 0)
(1.00393 0.0122413 0)
(1.00691 0.0135116 0)
(1.00811 0.0143194 0)
(1.00925 0.0112097 0)
(1.01069 0.0105422 0)
(1.01028 0.0105832 0)
(1.0106 0.00954448 0)
(0.999079 0.010492 0)
(1.00884 -0.00396229 0)
(1.00316 0.000914886 0)
(0.996596 0.00453965 0)
(1.00643 0.00750228 0)
(1.00434 -0.00188234 0)
(0.995718 0.00619873 0)
(1.00452 0.00477586 0)
(1.00141 -0.00039208 0)
(0.992727 0.0100624 0)
(1.00009 0.00789922 0)
(1.00242 0.00938519 0)
(0.99897 0.0152314 0)
(1.00376 0.0123379 0)
(1.00703 0.0127832 0)
(1.00796 0.0142133 0)
(1.00892 0.0114113 0)
(1.01066 0.0102194 0)
(1.01027 0.0104634 0)
(1.01041 0.00993677 0)
(0.99914 0.010038 0)
(1.00858 -0.00344571 0)
(1.00321 0.000660569 0)
(0.99679 0.00484319 0)
(1.00615 0.00701792 0)
(1.00437 -0.00132325 0)
(0.996 0.00589178 0)
(1.0043 0.00498362 0)
(1.00169 -0.000181682 0)
(0.993114 0.00984888 0)
(1 0.00820516 0)
(1.00286 0.00889458 0)
(0.99906 0.0149027 0)
(1.00353 0.0124801 0)
(1.00715 0.0121056 0)
(1.00789 0.0139748 0)
(1.00858 0.0116677 0)
(1.01059 0.00999282 0)
(1.01032 0.0101898 0)
(1.01025 0.0101967 0)
(0.9992 0.00956903 0)
(1.00829 -0.00291089 0)
(1.00329 0.000398967 0)
(0.99696 0.00513639 0)
(1.00589 0.00655964 0)
(1.00437 -0.000808579 0)
(0.996289 0.0056576 0)
(1.00406 0.00513931 0)
(1.00196 6.13834e-05 0)
(0.993527 0.00960723 0)
(0.999912 0.00849919 0)
(1.00329 0.0084629 0)
(0.999239 0.0145088 0)
(1.00328 0.0126529 0)
(1.00725 0.0115053 0)
(1.00789 0.0136161 0)
(1.00822 0.0119368 0)
(1.01044 0.0099038 0)
(1.01042 0.0098491 0)
(1.01017 0.0102732 0)
(0.999259 0.00908726 0)
(1.00798 -0.00236047 0)
(1.0034 0.000130362 0)
(0.997118 0.00541963 0)
(1.00564 0.00612914 0)
(1.00435 -0.000356539 0)
(0.996571 0.00548688 0)
(1.00382 0.00525093 0)
(1.00223 0.000336086 0)
(0.993968 0.00935076 0)
(0.99982 0.00877666 0)
(1.0037 0.00809225 0)
(0.999506 0.0140442 0)
(1.00301 0.0128421 0)
(1.00732 0.011018 0)
(1.00798 0.0131385 0)
(1.00789 0.0121671 0)
(1.01022 0.00993889 0)
(1.01053 0.00951135 0)
(1.01018 0.0101707 0)
(0.999317 0.00859312 0)
(1.00765 -0.00179628 0)
(1.00354 -0.000136363 0)
(0.997271 0.00567974 0)
(1.0054 0.00575455 0)
(1.00434 1.61463e-05 0)
(0.996841 0.00538786 0)
(1.00358 0.00533077 0)
(1.00249 0.000616234 0)
(0.994438 0.00908418 0)
(0.999726 0.00903106 0)
(1.00409 0.0077756 0)
(0.999857 0.0135203 0)
(1.00274 0.0130165 0)
(1.00734 0.0106406 0)
(1.00814 0.0125755 0)
(1.00762 0.0123291 0)
(1.00992 0.0100723 0)
(1.0106 0.00922889 0)
(1.01029 0.00991854 0)
(0.999374 0.0080893 0)
(1.00729 -0.00122532 0)
(1.00369 -0.000397126 0)
(0.997428 0.00591041 0)
(1.00514 0.00544 0)
(1.00433 0.000316637 0)
(0.997102 0.00534674 0)
(1.00334 0.00539706 0)
(1.00274 0.000888862 0)
(0.994935 0.00881669 0)
(0.999629 0.00926032 0)
(1.00444 0.00752445 0)
(1.00028 0.0129425 0)
(1.00248 0.0131684 0)
(1.0073 0.0103832 0)
(1.00835 0.011946 0)
(1.00741 0.0123962 0)
(1.00957 0.0102814 0)
(1.01061 0.00904389 0)
(1.01047 0.00959314 0)
(0.999431 0.00757875 0)
(1.00692 -0.000655535 0)
(1.00385 -0.000645749 0)
(0.99759 0.00610074 0)
(1.00487 0.00519624 0)
(1.00433 0.000540617 0)
(0.997358 0.00534352 0)
(1.0031 0.00546197 0)
(1.00299 0.00113699 0)
(0.995459 0.00855337 0)
(0.999532 0.00947211 0)
(1.00474 0.00733819 0)
(1.00078 0.012321 0)
(1.00225 0.0132797 0)
(1.00717 0.0102555 0)
(1.00861 0.0112792 0)
(1.0073 0.0123374 0)
(1.00917 0.0105335 0)
(1.01054 0.00894416 0)
(1.01066 0.00926956 0)
(0.99949 0.00706296 0)
(1.00653 -9.1722e-05 0)
(1.004 -0.000874938 0)
(0.997762 0.00623229 0)
(1.00458 0.0050391 0)
(1.00434 0.000692086 0)
(0.997616 0.00536201 0)
(1.00286 0.00553715 0)
(1.00322 0.00136022 0)
(0.996014 0.00827861 0)
(0.999437 0.00966018 0)
(1.00499 0.00722337 0)
(1.00133 0.0116615 0)
(1.00207 0.0133191 0)
(1.00697 0.0102476 0)
(1.00888 0.0106349 0)
(1.0073 0.0121433 0)
(1.00876 0.0108133 0)
(1.01039 0.00893058 0)
(1.01085 0.0089838 0)
(0.999548 0.0065458 0)
(1.00612 0.000461566 0)
(1.00415 -0.00107994 0)
(0.997946 0.00629806 0)
(1.00428 0.00496463 0)
(1.00436 0.000786307 0)
(0.997881 0.00538306 0)
(1.00261 0.005648 0)
(1.00343 0.00155971 0)
(0.996599 0.00798448 0)
(0.999354 0.00982199 0)
(1.00518 0.00718397 0)
(1.00193 0.0109641 0)
(1.00196 0.0132764 0)
(1.00668 0.0103617 0)
(1.00913 0.0100524 0)
(1.00742 0.0117892 0)
(1.00838 0.0110845 0)
(1.01014 0.00902293 0)
(1.01099 0.00872705 0)
(0.999607 0.00602926 0)
(1.00571 0.00100115 0)
(1.00428 -0.00124749 0)
(0.998145 0.00628508 0)
(1.00396 0.00498312 0)
(1.00439 0.00084206 0)
(0.998162 0.00538488 0)
(1.00236 0.00579777 0)
(1.00363 0.00174818 0)
(0.997216 0.00767062 0)
(0.999291 0.00995395 0)
(1.00529 0.00721367 0)
(1.00255 0.0102663 0)
(1.00194 0.013123 0)
(1.00632 0.0105665 0)
(1.00933 0.00958076 0)
(1.00765 0.0112718 0)
(1.00805 0.0112686 0)
(1.00979 0.00923626 0)
(1.01106 0.00852419 0)
(0.999666 0.0055181 0)
(1.00528 0.00151494 0)
(1.00439 -0.00136751 0)
(0.998361 0.00619047 0)
(1.00363 0.00507299 0)
(1.00441 0.000873359 0)
(0.998462 0.00534833 0)
(1.00212 0.00598886 0)
(1.0038 0.00195278 0)
(0.997864 0.00732672 0)
(0.99926 0.0100451 0)
(1.00532 0.00731176 0)
(1.00319 0.00959558 0)
(1.00202 0.0128501 0)
(1.00592 0.0108073 0)
(1.00942 0.00927258 0)
(1.00798 0.0106548 0)
(1.00784 0.0112938 0)
(1.00938 0.00952661 0)
(1.01103 0.00842433 0)
(0.999725 0.00501506 0)
(1.00485 0.00199721 0)
(1.00447 -0.00143532 0)
(0.998596 0.00600985 0)
(1.00329 0.0052215 0)
(1.00442 0.000906858 0)
(0.998788 0.00524964 0)
(1.00187 0.00621929 0)
(1.00393 0.00217663 0)
(0.998539 0.00695719 0)
(0.999274 0.0100858 0)
(1.00528 0.00748012 0)
(1.00381 0.00896585 0)
(1.00222 0.0124624 0)
(1.00551 0.0110392 0)
(1.0094 0.00913157 0)
(1.00835 0.0100177 0)
(1.00777 0.0111301 0)
(1.00894 0.0098062 0)
(1.01086 0.00846506 0)
(0.999784 0.00452471 0)
(1.00441 0.00244163 0)
(1.00452 -0.00144446 0)
(0.998853 0.00575293 0)
(1.00294 0.00540537 0)
(1.0044 0.000968708 0)
(0.999141 0.0050785 0)
(1.00165 0.00646082 0)
(1.00401 0.00244665 0)
(0.999232 0.00655682 0)
(0.999348 0.010056 0)
(1.00517 0.00770431 0)
(1.00439 0.00840951 0)
(1.00254 0.0119776 0)
(1.00513 0.0112221 0)
(1.00925 0.00912774 0)
(1.00871 0.00942885 0)
(1.00785 0.0107942 0)
(1.00854 0.00999631 0)
(1.01058 0.00863313 0)
(0.999843 0.00405083 0)
(1.00397 0.00284127 0)
(1.00453 -0.00138494 0)
(0.99913 0.00542384 0)
(1.0026 0.00560513 0)
(1.00436 0.00107268 0)
(0.999521 0.00483932 0)
(1.00144 0.00668618 0)
(1.00403 0.0027787 0)
(0.999928 0.00613951 0)
(0.999493 0.00994201 0)
(1.005 0.00798419 0)
(1.00491 0.00795278 0)
(1.00296 0.0113946 0)
(1.00481 0.0113126 0)
(1.00898 0.00923964 0)
(1.00902 0.00895396 0)
(1.00805 0.0103382 0)
(1.00824 0.01005 0)
(1.0102 0.00883798 0)
(0.9999 0.00359859 0)
(1.00354 0.00318653 0)
(1.00451 -0.00125225 0)
(0.999426 0.0050281 0)
(1.00226 0.00579576 0)
(1.00428 0.001249 0)
(0.999924 0.0045285 0)
(1.00128 0.0068713 0)
(1.00399 0.0031836 0)
(1.00061 0.00576437 0)
(0.999722 0.00972698 0)
(1.00479 0.0082788 0)
(1.00534 0.00763093 0)
(1.00346 0.0107386 0)
(1.00459 0.0112764 0)
(1.00862 0.00941268 0)
(1.00923 0.00861368 0)
(1.00833 0.00981039 0)
(1.00807 0.00995852 0)
(1.0098 0.0090002 0)
(0.999956 0.00317296 0)
(1.00311 0.00347191 0)
(1.00443 -0.00104549 0)
(0.999735 0.00458265 0)
(1.00194 0.00595183 0)
(1.00415 0.00150556 0)
(1.00034 0.00418863 0)
(1.00116 0.00697867 0)
(1.0039 0.003653 0)
(1.00125 0.00546464 0)
(1.00003 0.00940883 0)
(1.00457 0.00854255 0)
(1.00566 0.0074627 0)
(1.00401 0.010064 0)
(1.00449 0.0110883 0)
(1.00821 0.0095793 0)
(1.00931 0.008416 0)
(1.00866 0.00927947 0)
(1.00802 0.00974024 0)
(1.00943 0.00909084 0)
(1.00001 0.00277859 0)
(1.00269 0.00368454 0)
(1.00431 -0.00076382 0)
(1.00005 0.00411048 0)
(1.00166 0.00604886 0)
(1.00397 0.00186521 0)
(1.00076 0.00386274 0)
(1.00112 0.00698702 0)
(1.00376 0.0041492 0)
(1.00183 0.00525749 0)
(1.00041 0.00902081 0)
(1.00436 0.00874332 0)
(1.00586 0.00740997 0)
(1.00456 0.00941594 0)
(1.00451 0.0107493 0)
(1.0078 0.00969208 0)
(1.00926 0.00834986 0)
(1.00897 0.0088115 0)
(1.0081 0.00941281 0)
(1.00912 0.00909545 0)
(1.00006 0.00241954 0)
(1.0023 0.00382122 0)
(1.00414 -0.000423191 0)
(1.00037 0.00364201 0)
(1.00142 0.00606249 0)
(1.00375 0.00231172 0)
(1.00115 0.00359136 0)
(1.00115 0.00689373 0)
(1.00359 0.0046173 0)
(1.00233 0.00516116 0)
(1.00085 0.00858539 0)
(1.00418 0.00884054 0)
(1.00596 0.00743709 0)
(1.00507 0.00885274 0)
(1.00464 0.0103016 0)
(1.00743 0.00971353 0)
(1.00911 0.00836343 0)
(1.00921 0.00844677 0)
(1.00826 0.00901401 0)
(1.0089 0.00901081 0)
(1.00011 0.00209673 0)
(1.00193 0.00388589 0)
(1.00393 -4.93939e-05 0)
(1.00068 0.00320664 0)
(1.00123 0.00597141 0)
(1.00349 0.00280035 0)
(1.00151 0.00340868 0)
(1.00123 0.00670174 0)
(1.00342 0.00502427 0)
(1.00275 0.00516437 0)
(1.00132 0.00813507 0)
(1.00405 0.00882723 0)
(1.00596 0.00750926 0)
(1.00552 0.00839136 0)
(1.00487 0.00978773 0)
(1.00713 0.00962779 0)
(1.00888 0.00840117 0)
(1.00935 0.00820039 0)
(1.00848 0.00860576 0)
(1.00879 0.00883075 0)
(1.00016 0.00181485 0)
(1.00158 0.00387083 0)
(1.00368 0.000357087 0)
(1.00097 0.00283864 0)
(1.00111 0.00577201 0)
(1.00321 0.00329284 0)
(1.00182 0.00334529 0)
(1.00138 0.00645807 0)
(1.00327 0.00534751 0)
(1.00308 0.00523785 0)
(1.00179 0.00770605 0)
(1.00399 0.00871421 0)
(1.00591 0.00758522 0)
(1.00588 0.00804047 0)
(1.00515 0.0092572 0)
(1.00693 0.00944205 0)
(1.00861 0.00841279 0)
(1.00939 0.00804606 0)
(1.00869 0.00824395 0)
(1.00877 0.0085636 0)
(1.0002 0.00157069 0)
(1.00128 0.00378912 0)
(1.0034 0.000774878 0)
(1.00123 0.00255224 0)
(1.00105 0.00548771 0)
(1.00294 0.00373979 0)
(1.00206 0.00339992 0)
(1.00156 0.00621091 0)
(1.00314 0.0055801 0)
(1.00334 0.00535447 0)
(1.00226 0.00731836 0)
(1.004 0.00852828 0)
(1.00582 0.00763929 0)
(1.00614 0.0077932 0)
(1.00546 0.00875021 0)
(1.00682 0.00916679 0)
(1.00836 0.00837445 0)
(1.00935 0.00794127 0)
(1.00886 0.0079606 0)
(1.00883 0.00825707 0)
(1.00023 0.0013651 0)
(1.00101 0.00365115 0)
(1.00311 0.00116722 0)
(1.00144 0.00235959 0)
(1.00105 0.005149 0)
(1.00269 0.00410779 0)
(1.00224 0.00352112 0)
(1.00176 0.00597559 0)
(1.00305 0.00574172 0)
(1.00353 0.0054973 0)
(1.0027 0.00698663 0)
(1.00406 0.00828349 0)
(1.00572 0.00765114 0)
(1.00632 0.00762087 0)
(1.00576 0.00830397 0)
(1.00679 0.00883005 0)
(1.00813 0.00827699 0)
(1.00925 0.00784845 0)
(1.00897 0.00774299 0)
(1.00892 0.00796498 0)
(1.00027 0.00119467 0)
(1.00078 0.00347058 0)
(1.00281 0.0015129 0)
(1.00161 0.00226819 0)
(1.0011 0.00479789 0)
(1.00247 0.00439252 0)
(1.00238 0.0036928 0)
(1.00197 0.00578102 0)
(1.003 0.00583055 0)
(1.00367 0.00562031 0)
(1.0031 0.00669025 0)
(1.00418 0.00797946 0)
(1.00563 0.00759651 0)
(1.00642 0.0074883 0)
(1.00602 0.00792461 0)
(1.00683 0.00846632 0)
(1.00796 0.00811016 0)
(1.00913 0.00773691 0)
(1.00903 0.00755154 0)
(1.00901 0.00770073 0)
(1.00029 0.00105869 0)
(1.00059 0.00326829 0)
(1.00252 0.00180639 0)
(1.00173 0.00222169 0)
(1.00119 0.0044294 0)
(1.00229 0.00454975 0)
(1.00247 0.0038901 0)
(1.00217 0.00567247 0)
(1.00298 0.00591179 0)
(1.00375 0.00578503 0)
(1.00345 0.00648875 0)
(1.00434 0.0076891 0)
(1.00558 0.00750648 0)
(1.00647 0.00739395 0)
(1.00624 0.00761909 0)
(1.0069 0.00811857 0)
(1.00783 0.00790187 0)
(1.00899 0.00760488 0)
(1.00905 0.00737475 0)
(1.00908 0.0074622 0)
(1.00032 0.00094018 0)
(1.00044 0.00306728 0)
(1.00224 0.00206188 0)
(1.00181 0.00225814 0)
(1.0013 0.00410201 0)
(1.00218 0.00459705 0)
(1.00255 0.00401992 0)
(1.00237 0.00552459 0)
(1.003 0.00588657 0)
(1.00381 0.00586547 0)
(1.00374 0.00628603 0)
(1.00451 0.00735723 0)
(1.00556 0.00734264 0)
(1.00649 0.00728645 0)
(1.00641 0.00736543 0)
(1.00699 0.00779171 0)
(1.00775 0.00767008 0)
(1.00887 0.00745167 0)
(1.00903 0.00720152 0)
(1.00914 0.0072339 0)
(1.00033 0.000840643 0)
(1.00032 0.00285307 0)
(1.00198 0.00225311 0)
(1.00185 0.00232883 0)
(1.00141 0.00383624 0)
(1.00209 0.00463301 0)
(1.0026 0.00418962 0)
(1.00256 0.005476 0)
(1.00304 0.005907 0)
(1.00385 0.00597556 0)
(1.00398 0.00616285 0)
(1.00471 0.00705643 0)
(1.00559 0.0071383 0)
(1.0065 0.0071562 0)
(1.00655 0.00714796 0)
(1.00708 0.00748626 0)
(1.00771 0.00741199 0)
(1.00875 0.0072694 0)
(1.00899 0.00702371 0)
(1.00917 0.00701129 0)
(1.00035 0.000777556 0)
(1.00024 0.00261671 0)
(1.00174 0.0022984 0)
(1.00185 0.00239044 0)
(1.00154 0.00364795 0)
(1.00206 0.00463517 0)
(1.00266 0.00428594 0)
(1.00274 0.00538205 0)
(1.00311 0.00584027 0)
(1.00385 0.00602944 0)
(1.00414 0.00605544 0)
(1.00487 0.00677806 0)
(1.00564 0.00690026 0)
(1.0065 0.00699969 0)
(1.00664 0.00695188 0)
(1.00715 0.00722649 0)
(1.00769 0.0071611 0)
(1.00866 0.00707553 0)
(1.00894 0.00685732 0)
(1.00916 0.00681744 0)
(1.00036 0.000714432 0)
(1.00016 0.00243445 0)
(1.00155 0.00230758 0)
(1.00185 0.00247955 0)
(1.00167 0.00352137 0)
(1.00205 0.00462393 0)
(1.00269 0.00436247 0)
(1.0029 0.00528836 0)
(1.00321 0.00574661 0)
(1.00389 0.00606512 0)
(1.00429 0.0059942 0)
(1.00504 0.00654847 0)
(1.00574 0.00665677 0)
(1.00655 0.00681794 0)
(1.00674 0.00675652 0)
(1.00723 0.00699431 0)
(1.0077 0.00693473 0)
(1.0086 0.00686922 0)
(1.00889 0.00667885 0)
(1.00914 0.00663768 0)
(1.00036 0.000664437 0)
(1.00012 0.00227516 0)
(1.00137 0.00238056 0)
(1.00184 0.00260778 0)
(1.00181 0.00342884 0)
(1.00208 0.00459054 0)
(1.00273 0.00442121 0)
(1.00306 0.00517971 0)
(1.00333 0.00560141 0)
(1.00391 0.00603257 0)
(1.00436 0.00592315 0)
(1.00515 0.0063258 0)
(1.00582 0.00638184 0)
(1.00658 0.00657966 0)
(1.00682 0.00652224 0)
(1.0073 0.00673303 0)
(1.00769 0.00670082 0)
(1.00854 0.00664827 0)
(1.00885 0.0064637 0)
(1.0091 0.00644771 0)
(1.00036 0.000631686 0)
(1.00009 0.00214687 0)
(1.00124 0.00242092 0)
(1.00181 0.00268358 0)
(1.00191 0.00328583 0)
(1.0021 0.00445368 0)
(1.00274 0.00438001 0)
(1.00316 0.00501288 0)
(1.00346 0.00538743 0)
(1.00396 0.00593938 0)
(1.00443 0.00585806 0)
(1.00524 0.00616721 0)
(1.00591 0.00615595 0)
(1.00664 0.00635957 0)
(1.0069 0.00631312 0)
(1.00738 0.00648881 0)
(1.00771 0.00647432 0)
(1.00847 0.00646126 0)
(1.00882 0.00625378 0)
(1.00907 0.00625688 0)
(1.00037 0.000606783 0)
(1.00007 0.00204314 0)
(1.00111 0.0024102 0)
(1.00175 0.00273877 0)
(1.00201 0.0031835 0)
(1.00216 0.00435857 0)
(1.00277 0.00440577 0)
(1.00327 0.00495722 0)
(1.00362 0.00522598 0)
(1.00404 0.00583527 0)
(1.00448 0.0057887 0)
(1.00528 0.00603714 0)
(1.00596 0.00594461 0)
(1.00669 0.00611876 0)
(1.00696 0.00608106 0)
(1.00744 0.0062393 0)
(1.00775 0.00621273 0)
(1.00841 0.00626472 0)
(1.00877 0.00605454 0)
(1.00904 0.00604495 0)
(1.00036 0.000577771 0)
(1.00006 0.00195504 0)
(1.00102 0.00241216 0)
(1.0017 0.00281388 0)
(1.00208 0.00312142 0)
(1.00222 0.00424259 0)
(1.00277 0.00437217 0)
(1.00331 0.0048671 0)
(1.00374 0.005023 0)
(1.00412 0.00563264 0)
(1.00452 0.0056531 0)
(1.00529 0.00589215 0)
(1.00599 0.00575104 0)
(1.00673 0.00587847 0)
(1.00703 0.00582478 0)
(1.0075 0.00599191 0)
(1.0078 0.00593632 0)
(1.00838 0.00601908 0)
(1.00871 0.00585362 0)
(1.00902 0.00579717 0)
(1.00036 0.000567645 0)
(1.00006 0.0018507 0)
(1.00093 0.00234848 0)
(1.00162 0.00283291 0)
(1.00212 0.00305368 0)
(1.00228 0.00411739 0)
(1.00279 0.00432242 0)
(1.00335 0.00480679 0)
(1.00384 0.00487571 0)
(1.00422 0.00542817 0)
(1.00457 0.0054913 0)
(1.00529 0.00574527 0)
(1.00597 0.00558075 0)
(1.00672 0.00566683 0)
(1.00707 0.00556994 0)
(1.00753 0.00574241 0)
(1.00782 0.00568814 0)
(1.00836 0.00575877 0)
(1.00862 0.00566528 0)
(1.00896 0.00557973 0)
(1.00035 0.000557653 0)
(1.00006 0.00175583 0)
(1.00088 0.00227508 0)
(1.00156 0.00285399 0)
(1.00217 0.00301272 0)
(1.00235 0.00400209 0)
(1.00281 0.00424726 0)
(1.00335 0.00473763 0)
(1.0039 0.00474134 0)
(1.0043 0.00522255 0)
(1.00465 0.00529375 0)