/*--------------------------------*- C++ -*----------------------------------*\
| =========                 |                                                 |
| \\      /  F ield         | OpenFOAM: The Open Source CFD Toolbox           |
|  \\    /   O peration     | Version:  2506                                  |
|   \\  /    A nd           | Website:  www.openfoam.com                      |
|    \\/     M anipulation  |                                                 |
\*---------------------------------------------------------------------------*/
FoamFile
{
    version     2.0;
    format      ascii;
    arch        "LSB;label=32;scalar=64";
    class       volScalarField;
    location    "6.55";
    object      p;
}
// * * * * * * * * * * * * * * * * * * * * * * * * * * * * * * * * * * * * * //

dimensions      [0 2 -2 0 0 0 0];

internalField   nonuniform List<scalar> 
9600
(
6.20507e-11
0.00234757
-0.00689148
-0.00540194
0.00409097
0.00140969
-0.00487484
-0.00239282
-0.0053705
-0.00880517
-0.00783663
-0.00593363
-0.00658012
-0.00748977
-0.00830357
-0.00869235
-0.00832968
-0.0066375
-0.00564803
-0.00233748
6.67526e-06
0.00230491
-0.00686182
-0.00537306
0.00401111
0.00139177
-0.00484935
-0.00243285
-0.00536098
-0.00880103
-0.00784543
-0.00591458
-0.00659001
-0.0074999
-0.00830189
-0.00869068
-0.00825983
-0.00667298
-0.00560081
-0.00268667
9.57773e-06
0.00225218
-0.00681737
-0.00532894
0.00394384
0.00136986
-0.00482515
-0.00248996
-0.00533669
-0.00879126
-0.00784276
-0.00589081
-0.00661067
-0.00750464
-0.00829877
-0.0086839
-0.0082131
-0.00671575
-0.00558634
-0.00308996
6.12951e-06
0.00219009
-0.00677057
-0.00527648
0.00386633
0.0013411
-0.00481335
-0.00255203
-0.00530844
-0.00876231
-0.00782696
-0.00588128
-0.00663663
-0.00750549
-0.00830419
-0.00868017
-0.00817202
-0.00675865
-0.00559931
-0.00346727
-2.72494e-06
0.00211702
-0.00671769
-0.00521602
0.0037725
0.00130561
-0.00480521
-0.00261774
-0.00527788
-0.00871373
-0.00780687
-0.00588987
-0.00666771
-0.00751112
-0.00831712
-0.00868034
-0.0081314
-0.00680439
-0.00563296
-0.00382026
-1.62427e-05
0.0020344
-0.00665482
-0.00515381
0.00365998
0.00126574
-0.00479436
-0.0026876
-0.00524417
-0.00865304
-0.00779043
-0.00591315
-0.0067033
-0.0075212
-0.0083313
-0.00868325
-0.00809135
-0.00685308
-0.0056848
-0.00415284
-3.34868e-05
0.00194602
-0.00657464
-0.00509745
0.00353048
0.00122316
-0.004779
-0.00276081
-0.00520784
-0.00858725
-0.00778052
-0.00594517
-0.00673998
-0.00753271
-0.00834332
-0.00868775
-0.00805303
-0.00690313
-0.00575444
-0.00446951
-5.31677e-05
0.00185521
-0.00648276
-0.00505128
0.00338866
0.00117812
-0.00475923
-0.00283637
-0.00516975
-0.00852039
-0.0077764
-0.00598019
-0.00677594
-0.00754537
-0.00835221
-0.00869308
-0.00801797
-0.00695308
-0.00584202
-0.00477456
-7.41437e-05
0.00176377
-0.00638275
-0.00501528
0.00324007
0.00112981
-0.00473643
-0.00291411
-0.00513014
-0.00845418
-0.00777613
-0.00601516
-0.00681136
-0.00755983
-0.00835808
-0.00869925
-0.00798738
-0.00700136
-0.00594842
-0.00507169
-9.56866e-05
0.00167197
-0.00627834
-0.0049868
0.00308825
0.00107705
-0.00471264
-0.00299428
-0.00508885
-0.0083892
-0.00777829
-0.00604942
-0.00684659
-0.00757625
-0.0083621
-0.00870606
-0.00796186
-0.00705109
-0.00607389
-0.00536302
-0.000117442
0.00157921
-0.00617142
-0.00496302
0.00293414
0.001019
-0.00468934
-0.00307708
-0.00504583
-0.00832543
-0.00778245
-0.00608317
-0.00688148
-0.00759482
-0.00836537
-0.0087127
-0.00794227
-0.00710319
-0.006216
-0.00564962
-0.000139308
0.00148467
-0.00606516
-0.00494192
0.00277735
0.000955411
-0.00466723
-0.00316269
-0.00500126
-0.00826252
-0.00778879
-0.00611641
-0.00691606
-0.00761566
-0.0083681
-0.00871882
-0.00793015
-0.00715816
-0.0063706
-0.00593301
-0.00016131
0.00138773
-0.00595903
-0.00492242
0.00261733
0.000886542
-0.00464644
-0.00325126
-0.00495534
-0.00820003
-0.00779764
-0.00614889
-0.00695067
-0.00763827
-0.00837022
-0.00872495
-0.0079259
-0.00721649
-0.00653461
-0.00621486
-0.000183529
0.00128803
-0.0058531
-0.00490401
0.00245392
0.000812765
-0.00462697
-0.0033428
-0.00490832
-0.00813756
-0.00780939
-0.00618032
-0.00698544
-0.00766219
-0.00837211
-0.00873168
-0.00792866
-0.00728041
-0.00670731
-0.00649579
-0.000206059
0.00118537
-0.00574732
-0.00488653
0.00228723
0.000735221
-0.00460882
-0.00343718
-0.00486057
-0.00807471
-0.00782442
-0.00621029
-0.00702035
-0.00768748
-0.00837402
-0.00873973
-0.00793717
-0.00735198
-0.00688943
-0.00677333
-0.000229002
0.00107973
-0.00564167
-0.00486992
0.00211754
0.00065421
-0.00459211
-0.00353415
-0.00481253
-0.00801113
-0.00784316
-0.00623829
-0.0070554
-0.0077145
-0.00837564
-0.00875073
-0.00795049
-0.00743088
-0.00708086
-0.00704479
-0.000252465
0.000971135
-0.0055362
-0.00485421
0.00194513
0.000570187
-0.00457709
-0.00363343
-0.00476469
-0.00794653
-0.007866
-0.00626399
-0.00709048
-0.00774374
-0.00837631
-0.00876699
-0.00796879
-0.00751552
-0.00728139
-0.0073096
-0.000276557
0.00085969
-0.00543107
-0.00483938
0.00177015
0.000483555
-0.00456402
-0.00373467
-0.00471765
-0.00788055
-0.00789335
-0.0062873
-0.00712512
-0.0077761
-0.00837512
-0.00879055
-0.00799369
-0.00760245
-0.00749174
-0.00756934
-0.000301395
0.000745554
-0.0053265
-0.00482547
0.00159266
0.000394697
-0.00455316
-0.00383748
-0.00467207
-0.00781284
-0.00792554
-0.00630832
-0.00715862
-0.00781295
-0.00837083
-0.00882193
-0.00802753
-0.00768829
-0.00771213
-0.0078269
-0.000327111
0.000628938
-0.00522281
-0.00481244
0.00141263
0.000303986
-0.00454475
-0.00394157
-0.00462857
-0.00774315
-0.00796275
-0.00632731
-0.00719005
-0.00785593
-0.00836266
-0.00886025
-0.00807375
-0.00777058
-0.0079406
-0.00808576
-0.000353865
0.000510109
-0.00512037
-0.00480028
0.00122998
0.000211796
-0.00453892
-0.00404667
-0.00458774
-0.00767127
-0.00800495
-0.00634508
-0.00721796
-0.00790665
-0.00835148
-0.00890371
-0.00813576
-0.00784799
-0.00817302
-0.00835042
-0.000381841
0.00038937
-0.00501961
-0.00478892
0.00104451
0.000118498
-0.0045358
-0.00415257
-0.00455016
-0.00759704
-0.00805194
-0.00636286
-0.00724051
-0.00796646
-0.00833925
-0.00894904
-0.0082164
-0.00792101
-0.00840385
-0.00862613
-0.00041125
0.000267075
-0.00492103
-0.00477823
0.000856025
2.43656e-05
-0.00453544
-0.00425918
-0.00451635
-0.00752048
-0.00810333
-0.00638197
-0.00725609
-0.00803601
-0.00832832
-0.0089925
-0.00831774
-0.00799211
-0.00862604
-0.00891761
-0.000442345
0.000143643
-0.0048252
-0.00476806
0.0006643
-7.04441e-05
-0.0045377
-0.00436665
-0.00448671
-0.00744171
-0.00815864
-0.00640386
-0.00726347
-0.00811512
-0.00832161
-0.00903062
-0.00844047
-0.00806558
-0.00883153
-0.00922716
-0.000475426
1.95251e-05
-0.00473271
-0.00475822
0.000469119
-0.000165805
-0.00454248
-0.00447526
-0.0044615
-0.007361
-0.00821731
-0.00643005
-0.00726163
-0.00820311
-0.00832273
-0.00906011
-0.00858352
-0.00814768
-0.0090124
-0.00955249
-0.000510831
-0.000104757
-0.00464419
-0.00474854
0.000270337
-0.000261744
-0.00454948
-0.00458534
-0.00444095
-0.00727875
-0.00827893
-0.00646188
-0.00724961
-0.00829882
-0.00833562
-0.00907811
-0.00874401
-0.0082467
-0.00916236
-0.00988451
-0.000548935
-0.000228628
-0.0045603
-0.00473882
6.78777e-05
-0.000358435
-0.00455814
-0.00469757
-0.00442512
-0.00719507
-0.00834336
-0.00650057
-0.00722692
-0.00840059
-0.00836418
-0.00908269
-0.00891697
-0.0083719
-0.00927905
-0.0102065
-0.000590163
-0.000351513
-0.00448163
-0.00472893
-0.000138251
-0.000456121
-0.00456774
-0.00481273
-0.00441418
-0.00710969
-0.00841029
-0.00654735
-0.00719343
-0.00850651
-0.00841255
-0.00907347
-0.00909478
-0.00853139
-0.00936709
-0.0104972
-0.000635
-0.00047276
-0.00440878
-0.00471885
-0.00034781
-0.000555368
-0.0045773
-0.00493139
-0.00440902
-0.00702207
-0.0084793
-0.00660402
-0.007149
-0.00861395
-0.00848482
-0.00905192
-0.00926774
-0.00873039
-0.00944021
-0.0107351
-0.000683943
-0.000591682
-0.00434232
-0.00470856
-0.000560489
-0.000656888
-0.0045855
-0.00505414
-0.00441096
-0.00693152
-0.00855023
-0.00667302
-0.00709337
-0.00871904
-0.00858468
-0.00902156
-0.00942498
-0.00896905
-0.00951874
-0.0109047
-0.000737514
-0.000707668
-0.00428269
-0.00469815
-0.000775881
-0.000761594
-0.00459087
-0.00518105
-0.00442162
-0.00683759
-0.00862251
-0.00675694
-0.00702692
-0.00881703
-0.00871556
-0.00898866
-0.00955538
-0.0092398
-0.00962549
-0.0110051
-0.000796328
-0.000820103
-0.00423014
-0.00468796
-0.000993123
-0.000870915
-0.00459201
-0.00531127
-0.0044433
-0.00673995
-0.00869446
-0.00685891
-0.00695169
-0.00890196
-0.00887958
-0.00896239
-0.00964955
-0.00952772
-0.00977953
-0.0110567
-0.000861001
-0.000928356
-0.00418481
-0.00467866
-0.00121088
-0.000986392
-0.00458834
-0.00544349
-0.00447856
-0.00663846
-0.00876337
-0.00698206
-0.00687155
-0.00896672
-0.00907647
-0.00895442
-0.00970284
-0.00981426
-0.00998786
-0.0110914
-0.000932069
-0.00103196
-0.00414665
-0.00467108
-0.00142742
-0.00110953
-0.00457998
-0.00557603
-0.00452995
-0.00653357
-0.00882587
-0.00712856
-0.00679252
-0.00900433
-0.00930216
-0.00897666
-0.00971661
-0.0100821
-0.010244
-0.0111407
-0.00101011
-0.00113062
-0.00411512
-0.00466628
-0.00164089
-0.0012415
-0.00456753
-0.00570656
-0.00459986
-0.00642751
-0.00887771
-0.00729857
-0.00672224
-0.00900926
-0.00954955
-0.00903967
-0.009696
-0.0103182
-0.0105356
-0.0112258
-0.00109573
-0.00122424
-0.00408905
-0.00466596
-0.00184965
-0.00138265
-0.00455282
-0.00583213
-0.00468955
-0.00632383
-0.00891461
-0.00749006
-0.00666891
-0.00897861
-0.00980942
-0.00915315
-0.009649
-0.01051
-0.0108513
-0.011356
-0.00118933
-0.00131293
-0.00406696
-0.00467226
-0.00205247
-0.0015325
-0.00453851
-0.00594988
-0.00479861
-0.0062262
-0.00893381
-0.00770045
-0.00664101
-0.0089126
-0.0100692
-0.0093249
-0.00958939
-0.0106433
-0.0111785
-0.0115378
-0.00129125
-0.00139713
-0.00404691
-0.00468743
-0.00224891
-0.00168973
-0.00452758
-0.00605735
-0.00492562
-0.00613897
-0.00893388
-0.00792569
-0.00664647
-0.00881537
-0.0103131
-0.00955724
-0.0095385
-0.0107061
-0.0114961
-0.0117777
-0.00140177
-0.00147762
-0.00402636
-0.00471335
-0.00243959
-0.00185204
-0.00452331
-0.00615342
-0.00506801
-0.00606692
-0.00891448
-0.00815939
-0.00669193
-0.00869472
-0.0105251
-0.00984443
-0.00952199
-0.0106987
-0.0117742
-0.0120736
-0.00152078
-0.00155561
-0.00400274
-0.00475119
-0.0026264
-0.00201625
-0.00452848
-0.00623888
-0.0052219
-0.00601383
-0.00887685
-0.00839439
-0.00678187
-0.00856129
-0.0106919
-0.0101743
-0.00956229
-0.0106363
-0.0119832
-0.0124052
-0.00164812
-0.00163253
-0.00397367
-0.00480119
-0.00281219
-0.00217916
-0.00454417
-0.00631536
-0.00538335
-0.00598158
-0.0088237
-0.00862451
-0.00691801
-0.00842711
-0.0108046
-0.0105312
-0.00967333
-0.0105429
-0.0121033
-0.0127362
-0.00178341
-0.00171009
-0.00393744
-0.0048626
-0.00300067
-0.0023378
-0.00456942
-0.00638706
-0.00554911
-0.00596953
-0.00875927
-0.00884583
-0.00709981
-0.00830418
-0.0108575
-0.0108965
-0.00986226
-0.0104464
-0.0121297
-0.013028
-0.00192572
-0.00179039
-0.00389346
-0.0049335
-0.00319577
-0.0024901
-0.00460207
-0.00645904
-0.00571807
-0.00597595
-0.00868695
-0.00905651
-0.00732492
-0.0082044
-0.0108485
-0.0112486
-0.0101302
-0.0103761
-0.0120703
-0.0132468
-0.00207411
-0.00187554
-0.00384161
-0.00501074
-0.00340136
-0.00263635
-0.00463842
-0.00653518
-0.00589184
-0.00599857
-0.0086066
-0.00925483
-0.00759086
-0.00813942
-0.0107807
-0.0115626
-0.0104693
-0.0103614
-0.0119452
-0.0133692
-0.00222739
-0.0019677
-0.00378305
-0.00508976
-0.00362048
-0.00277854
-0.00467356
-0.00661791
-0.00607317
-0.0060363
-0.00851695
-0.0094374
-0.00789424
-0.0081197
-0.0106638
-0.0118158
-0.0108602
-0.0104288
-0.0117854
-0.0133852
-0.00238387
-0.00206931
-0.00372003
-0.00516509
-0.00385483
-0.00292051
-0.00470178
-0.0067062
-0.00626708
-0.00609218
-0.00841727
-0.00959744
-0.00822821
-0.0081546
-0.010514
-0.0119912
-0.0112731
-0.0105926
-0.01163
-0.0133009
-0.00254184
-0.00218251
-0.00365585
-0.00523074
-0.0041048
-0.00306921
-0.004718
-0.00679574
-0.00647985
-0.00617155
-0.00830751
-0.00972589
-0.00858253
-0.00825216
-0.0103515
-0.0120815
-0.0116752
-0.01085
-0.011521
-0.0131411
-0.00269851
-0.00230908
-0.00359507
-0.0052798
-0.00436851
-0.00323446
-0.00472118
-0.0068791
-0.00671278
-0.0062815
-0.00819226
-0.009813
-0.00894366
-0.00841607
-0.0101981
-0.0120892
-0.0120361
-0.0111817
-0.0114921
-0.0129447
-0.00285266
-0.00245
-0.0035435
-0.00530695
-0.00464237
-0.00342711
-0.00471553
-0.00694317
-0.0069598
-0.00643055
-0.00808209
-0.00985164
-0.00929461
-0.00864354
-0.0100775
-0.0120268
-0.0123305
-0.011558
-0.0115591
-0.012755
-0.00300268
-0.00260532
-0.00350715
-0.00531019
-0.00491939
-0.00365481
-0.00470826
-0.00697682
-0.00721273
-0.00662342
-0.00799004
-0.00984163
-0.00961709
-0.00892385
-0.0100108
-0.0119169
-0.0125416
-0.0119454
-0.0117201
-0.0126097
-0.00314756
-0.00277443
-0.00349161
-0.00528947
-0.00518998
-0.0039213
-0.00471121
-0.00697552
-0.00745875
-0.00685812
-0.00793068
-0.00979076
-0.00989577
-0.00923988
-0.0100099
-0.011787
-0.0126649
-0.0123093
-0.0119597
-0.0125335
-0.0032867
-0.00295468
-0.00350201
-0.00524734
-0.005443
-0.00422526
-0.00474054
-0.00694237
-0.00768056
-0.00712539
-0.00791704
-0.00971163
-0.0101205
-0.00957349
-0.0100764
-0.011664
-0.0127109
-0.0126179
-0.0122511
-0.0125408
-0.00342038
-0.00314224
-0.00354113
-0.00519078
-0.00566791
-0.00456158
-0.00481267
-0.00688555
-0.00786313
-0.00741238
-0.00795645
-0.00962105
-0.0102864
-0.00990556
-0.0102054
-0.011568
-0.0127005
-0.0128516
-0.0125574
-0.0126353
-0.00354887
-0.00333342
-0.00361046
-0.00512957
-0.00585742
-0.0049211
-0.00493845
-0.00681871
-0.00799829
-0.00770258
-0.00804806
-0.0095373
-0.0103962
-0.0102168
-0.0103865
-0.0115135
-0.0126571
-0.0130084
-0.0128405
-0.0128007
-0.00367245
-0.00352423
-0.00371056
-0.00507538
-0.00600725
-0.00528786
-0.00512205
-0.00676259
-0.00808626
-0.00797786
-0.00818375
-0.00947385
-0.0104589
-0.0104926
-0.0106045
-0.01151
-0.0126034
-0.0131019
-0.0130722
-0.0129997
-0.00379259
-0.00371062
-0.00384006
-0.00504104
-0.00611774
-0.00564242
-0.0053614
-0.00673645
-0.00813259
-0.00822491
-0.00835254
-0.00943957
-0.0104861
-0.0107255
-0.0108411
-0.0115579
-0.0125572
-0.0131508
-0.0132457
-0.0131928
-0.0039104
-0.0038898
-0.00399558
-0.00503773
-0.00619442
-0.00596898
-0.00564599
-0.00675217
-0.00814969
-0.00843835
-0.00854217
-0.00943975
-0.01049
-0.010912
-0.01108
-0.011651
-0.0125309
-0.0131716
-0.0133709
-0.0133575
-0.00402746
-0.0040593
-0.00417301
-0.00506859
-0.00625008
-0.00626032
-0.00595263
-0.00681366
-0.00815468
-0.00861642
-0.00874153
-0.00947542
-0.0104834
-0.0110512
-0.0113063
-0.011782
-0.0125346
-0.013177
-0.0134583
-0.0134891
-0.00414802
-0.00422594
-0.00436001
-0.00513099
-0.00629626
-0.00651451
-0.006263
-0.00691809
-0.00816268
-0.00876311
-0.00894298
-0.00954536
-0.010479
-0.0111472
-0.011505
-0.0119385
-0.0125757
-0.0131811
-0.0135152
-0.0135902
-0.00427333
-0.00438825
-0.0045546
-0.00522258
-0.00634241
-0.00673213
-0.0065669
-0.00705978
-0.0081816
-0.0088836
-0.00914009
-0.00964546
-0.010486
-0.0112095
-0.0116652
-0.0120993
-0.0126537
-0.0132013
-0.0135534
-0.0136654
-0.00440413
-0.00454805
-0.00475154
-0.00533922
-0.00639485
-0.00691738
-0.00685726
-0.00723148
-0.00821711
-0.00898196
-0.00932648
-0.0097708
-0.0105111
-0.0112502
-0.0117871
-0.0122449
-0.0127523
-0.0132471
-0.0135891
-0.0137206
-0.00454191
-0.00470674
-0.00494774
-0.00547633
-0.00645837
-0.00707769
-0.00712932
-0.00742573
-0.00827473
-0.00906305
-0.00949479
-0.00991322
-0.0105591
-0.0112799
-0.0118766
-0.0123678
-0.0128512
-0.0133107
-0.0136332
-0.013764
-0.00468669
-0.00486554
-0.00514103
-0.00563004
-0.00653628
-0.00721951
-0.0073809
-0.00763381
-0.00835528
-0.0091332
-0.00963943
-0.010061
-0.0106316
-0.0113083
-0.0119385
-0.0124698
-0.0129426
-0.0133785
-0.0136873
-0.0138063
-0.004838
-0.00502488
-0.00533225
-0.00579692
-0.00662985
-0.00734731
-0.00761012
-0.00784841
-0.00845726
-0.00919985
-0.00976133
-0.0102031
-0.010724
-0.0113461
-0.0119777
-0.0125475
-0.0130263
-0.013444
-0.013747
-0.0138555
-0.00499586
-0.00518682
-0.0055197
-0.00597284
-0.00673934
-0.00746695
-0.00781678
-0.00806328
-0.00857877
-0.00926831
-0.00986328
-0.010332
-0.0108254
-0.0113995
-0.0120057
-0.0125938
-0.0130943
-0.0135029
-0.013803
-0.0139106
-0.00515999
-0.00535057
-0.00570396
-0.00615488
-0.00686442
-0.00758371
-0.00800258
-0.00827197
-0.00871598
-0.00934298
-0.00994777
-0.0104433
-0.0109246
-0.0114644
-0.0120371
-0.0126153
-0.0131366
-0.0135504
-0.0138478
-0.0139615
-0.00532988
-0.00551959
-0.00588467
-0.00633965
-0.00700391
-0.00770144
-0.00816929
-0.00846879
-0.00886359
-0.00942725
-0.01002
-0.0105351
-0.0110136
-0.0115275
-0.012074
-0.0126284
-0.0131523
-0.0135803
-0.01388
-0.014002
-0.0055043
-0.00569134
-0.00606411
-0.00652546
-0.00715468
-0.00782384
-0.00832172
-0.00865068
-0.00901457
-0.00952172
-0.010086
-0.010607
-0.0110891
-0.0115806
-0.012103
-0.0126355
-0.0131462
-0.0135849
-0.0138941
-0.0140265
-0.00568355
-0.00586709
-0.00624265
-0.00670981
-0.00731376
-0.0079532
-0.00846585
-0.00881865
-0.00916255
-0.00962135
-0.0101483
-0.0106586
-0.0111449
-0.0116218
-0.0121156
-0.012629
-0.0131237
-0.0135624
-0.013883
-0.0140274
-0.00586746
-0.00605063
-0.0064204
-0.00689135
-0.0074785
-0.00808913
-0.00860396
-0.00897486
-0.00930724
-0.00972286
-0.010209
-0.010696
-0.0111737
-0.0116425
-0.0121084
-0.0125981
-0.0130807
-0.0135133
-0.0138416
-0.013997
-0.00605319
-0.00623265
-0.00660132
-0.00707227
-0.00764606
-0.00823137
-0.00873937
-0.0091198
-0.00944784
-0.00982632
-0.0102667
-0.0107233
-0.0111772
-0.0116311
-0.0120739
-0.012533
-0.0130027
-0.0134302
-0.0137646
-0.0139318
-0.00624227
-0.00642012
-0.00678391
-0.00725086
-0.00781326
-0.00837799
-0.00887793
-0.00925894
-0.00958165
-0.00992952
-0.0103194
-0.010736
-0.0111546
-0.0115779
-0.0119986
-0.0124247
-0.0128763
-0.0133018
-0.013642
-0.0138247
-0.00643764
-0.00661283
-0.00696705
-0.00742642
-0.00797943
-0.00852594
-0.00901767
-0.0094013
-0.00971929
-0.0100364
-0.0103729
-0.0107314
-0.0110922
-0.0114595
-0.011847
-0.0122486
-0.0126828
-0.013114
-0.0134653
-0.0136699
-0.00663363
-0.00680406
-0.00715381
-0.00760234
-0.00814383
-0.008677
-0.00915685
-0.00954498
-0.00987491
-0.0101751
-0.0104517
-0.010719
-0.0109752
-0.0112309
-0.0115208
-0.0118558
-0.0122413
-0.0126762
-0.0131032
-0.013443
-0.00682887
-0.00699755
-0.00734422
-0.00777901
-0.00830394
-0.00882979
-0.00930575
-0.00969155
-0.0100404
-0.0103912
-0.0107015
-0.0109163
-0.0110307
-0.0111329
-0.0112743
-0.0114341
-0.011557
-0.0116116
-0.0116103
-0.0116234
-0.00703844
-0.00718429
-0.00750533
-0.00791396
-0.00841742
-0.00894945
-0.00946307
-0.00985856
-0.0100995
-0.0102672
-0.0104342
-0.0106336
-0.0108334
-0.0110095
-0.0111459
-0.0112492
-0.0113264
-0.0114039
-0.0115176
-0.0117102
-0.00730175
-0.00747579
-0.00773383
-0.00805109
-0.00848277
-0.00894279
-0.00936244
-0.00970209
-0.00998298
-0.0102276
-0.0104811
-0.0107505
-0.0109871
-0.0111828
-0.0113181
-0.0113848
-0.0113881
-0.0113386
-0.0112843
-0.0112986
-0.00743009
-0.00753405
-0.00778701
-0.00810977
-0.00851905
-0.00894576
-0.00935096
-0.00969856
-0.0100047
-0.0102694
-0.0105005
-0.0107176
-0.0109
-0.0110589
-0.0112441
-0.0114935
-0.0118472
-0.0123051
-0.0128224
-0.0133138
-0.00767081
-0.00780402
-0.00796917
-0.00818682
-0.0085358
-0.00893918
-0.00934288
-0.00970455
-0.0100228
-0.0103062
-0.010559
-0.0107861
-0.0109827
-0.0111164
-0.0111904
-0.0112118
-0.0111766
-0.0111201
-0.0110915
-0.0111783
-0.00780858
-0.00791419
-0.0080471
-0.00822378
-0.00854291
-0.00893735
-0.00933747
-0.00970533
-0.0100366
-0.0103289
-0.0105945
-0.0108155
-0.0109872
-0.0110999
-0.0111555
-0.0111953
-0.01124
-0.0113245
-0.0114762
-0.0117504
0.000469649
-0.0049788
-0.0126924
-0.018491
-0.0200754
-0.0191375
-0.0180372
-0.0176088
-0.0176796
-0.0178073
-0.0177596
-0.0175448
-0.0172812
-0.0171379
-0.0171686
-0.0172664
-0.0173216
-0.0172504
-0.017071
-0.0169822
-0.0170576
-0.0171364
-0.0171464
-0.0171683
-0.0172385
-0.0173267
-0.0174372
-0.0175909
-0.0177452
-0.0178615
-0.0179745
-0.0180937
-0.0181955
-0.0183054
-0.0184649
-0.0186357
-0.0187742
-0.0188835
-0.0190219
-0.0192055
-0.019357
-0.0194508
-0.0195747
-0.0197945
-0.0201074
-0.0204404
-0.0207447
-0.0209691
-0.0210749
-0.0211202
-0.0212131
-0.0213733
-0.0215352
-0.0216974
-0.0219224
-0.0222279
-0.0225282
-0.0227584
-0.0229424
-0.0231363
-0.0233734
-0.0236135
-0.0238512
-0.0240829
-0.0243086
-0.0245371
-0.0248037
-0.0250617
-0.0252995
-0.0255572
-0.0258192
-0.0260558
-0.0262895
-0.0265538
-0.0268105
-0.0270693
-0.0273116
-0.0275906
-0.0278642
-0.0281358
-0.0283799
-0.0286595
-0.0289668
-0.0292991
-0.029626
-0.0299225
-0.030234
-0.0305205
-0.0308741
-0.031194
-0.0315418
-0.0319091
-0.0322406
-0.0325985
-0.0329464
-0.0332711
-0.0336844
-0.0340206
-0.034363
-0.0348299
-0.000214983
-0.00511697
-0.0126042
-0.0183444
-0.019988
-0.019094
-0.0180095
-0.0175908
-0.0176681
-0.0177994
-0.0177537
-0.01754
-0.0172765
-0.0171331
-0.017164
-0.0172624
-0.0173183
-0.0172477
-0.0170684
-0.0169795
-0.0170553
-0.0171345
-0.0171446
-0.0171666
-0.017237
-0.0173253
-0.0174358
-0.0175896
-0.017744
-0.0178603
-0.0179732
-0.0180926
-0.0181943
-0.0183042
-0.0184638
-0.0186347
-0.0187732
-0.0188825
-0.0190209
-0.0192046
-0.0193562
-0.0194501
-0.0195739
-0.0197937
-0.0201066
-0.0204398
-0.0207441
-0.0209686
-0.0210745
-0.0211198
-0.0212126
-0.0213729
-0.0215348
-0.021697
-0.0219219
-0.0222276
-0.0225279
-0.0227581
-0.0229421
-0.023136
-0.0233731
-0.0236132
-0.023851
-0.0240826
-0.0243084
-0.0245369
-0.0248035
-0.0250615
-0.0252993
-0.025557
-0.025819
-0.0260556
-0.0262893
-0.0265536
-0.0268104
-0.0270691
-0.0273114
-0.0275905
-0.0278641
-0.0281357
-0.0283798
-0.0286593
-0.0289667
-0.029299
-0.0296259
-0.0299224
-0.0302339
-0.0305204
-0.030874
-0.0311939
-0.0315417
-0.031909
-0.0322405
-0.0325984
-0.0329463
-0.033271
-0.0336843
-0.0340205
-0.0343629
-0.0348299
-0.000864604
-0.0052646
-0.0124364
-0.0180823
-0.0198445
-0.0190427
-0.0179814
-0.0175673
-0.0176493
-0.0177853
-0.0177436
-0.0175331
-0.0172717
-0.0171293
-0.0171603
-0.0172585
-0.0173146
-0.0172446
-0.0170656
-0.0169769
-0.0170531
-0.0171325
-0.0171428
-0.017165
-0.0172355
-0.0173239
-0.0174346
-0.0175885
-0.017743
-0.0178593
-0.0179722
-0.0180916
-0.0181934
-0.0183032
-0.0184628
-0.0186338
-0.0187724
-0.0188817
-0.0190201
-0.0192039
-0.0193555
-0.0194494
-0.0195732
-0.0197929
-0.020106
-0.0204392
-0.0207437
-0.0209682
-0.0210741
-0.0211193
-0.0212122
-0.0213725
-0.0215345
-0.0216966
-0.0219215
-0.0222272
-0.0225277
-0.0227579
-0.0229418
-0.0231357
-0.0233729
-0.023613
-0.0238508
-0.0240824
-0.0243082
-0.0245367
-0.0248033
-0.0250613
-0.0252991
-0.0255568
-0.0258189
-0.0260555
-0.0262891
-0.0265534
-0.0268102
-0.027069
-0.0273113
-0.0275903
-0.0278639
-0.0281356
-0.0283796
-0.0286592
-0.0289666
-0.0292989
-0.0296258
-0.0299223
-0.0302338
-0.0305203
-0.0308739
-0.0311938
-0.0315416
-0.0319089
-0.0322404
-0.0325983
-0.0329462
-0.0332709
-0.0336842
-0.0340204
-0.0343628
-0.0348299
-0.0014756
-0.00541056
-0.0122229
-0.0177515
-0.0196484
-0.0189713
-0.0179411
-0.0175311
-0.0176183
-0.0177604
-0.0177243
-0.0175199
-0.0172644
-0.0171255
-0.0171569
-0.0172537
-0.017309
-0.0172397
-0.017062
-0.016974
-0.0170504
-0.0171299
-0.0171403
-0.0171628
-0.0172335
-0.0173222
-0.0174331
-0.0175873
-0.017742
-0.0178583
-0.0179712
-0.0180907
-0.0181925
-0.0183023
-0.0184619
-0.0186329
-0.0187715
-0.0188808
-0.0190192
-0.0192031
-0.0193548
-0.0194486
-0.0195724
-0.0197921
-0.0201052
-0.0204387
-0.0207433
-0.0209679
-0.0210737
-0.0211188
-0.0212117
-0.0213721
-0.0215341
-0.0216961
-0.0219211
-0.0222269
-0.0225275
-0.0227577
-0.0229416
-0.0231354
-0.0233726
-0.0236128
-0.0238506
-0.0240822
-0.024308
-0.0245365
-0.0248031
-0.0250611
-0.0252989
-0.0255566
-0.0258187
-0.0260553
-0.0262889
-0.0265533
-0.0268101
-0.0270688
-0.0273111
-0.0275902
-0.0278638
-0.0281355
-0.0283795
-0.028659
-0.0289664
-0.0292988
-0.0296257
-0.0299222
-0.0302337
-0.0305202
-0.0308738
-0.0311937
-0.0315415
-0.0319089
-0.0322403
-0.0325983
-0.0329461
-0.0332708
-0.0336841
-0.0340204
-0.0343627
-0.0348299
-0.00206673
-0.00556613
-0.0119995
-0.0174011
-0.0194304
-0.0188892
-0.0178941
-0.0174854
-0.0175761
-0.0177238
-0.0176941
-0.0174982
-0.0172524
-0.0171205
-0.0171533
-0.0172474
-0.0173004
-0.0172322
-0.0170571
-0.0169708
-0.017047
-0.0171262
-0.017137
-0.0171599
-0.0172308
-0.0173196
-0.0174311
-0.0175859
-0.017741
-0.0178572
-0.01797
-0.0180896
-0.0181917
-0.0183016
-0.0184611
-0.0186319
-0.0187706
-0.01888
-0.0190184
-0.0192022
-0.0193539
-0.0194477
-0.0195714
-0.0197911
-0.0201043
-0.020438
-0.0207429
-0.0209676
-0.0210732
-0.0211182
-0.0212111
-0.0213717
-0.0215337
-0.0216956
-0.0219206
-0.0222265
-0.0225272
-0.0227575
-0.0229412
-0.0231351
-0.0233723
-0.0236126
-0.0238503
-0.024082
-0.0243077
-0.0245363
-0.0248029
-0.0250609
-0.0252987
-0.0255565
-0.0258186
-0.0260552
-0.0262888
-0.0265531
-0.0268099
-0.0270687
-0.0273109
-0.02759
-0.0278637
-0.0281353
-0.0283794
-0.0286589
-0.0289663
-0.0292986
-0.0296256
-0.029922
-0.0302336
-0.0305201
-0.0308737
-0.0311936
-0.0315414
-0.0319088
-0.0322403
-0.0325982
-0.0329461
-0.0332707
-0.033684
-0.0340203
-0.0343625
-0.0348301
-0.00264209
-0.00573932
-0.0117849
-0.0170497
-0.0192021
-0.0188021
-0.0178459
-0.0174361
-0.0175277
-0.01768
-0.0176563
-0.0174698
-0.0172361
-0.0171135
-0.0171485
-0.0172391
-0.0172887
-0.0172216
-0.017051
-0.0169672
-0.0170431
-0.0171216
-0.0171331
-0.0171566
-0.0172273
-0.0173161
-0.0174282
-0.0175839
-0.0177396
-0.0178559
-0.0179686
-0.0180884
-0.018191
-0.018301
-0.0184603
-0.0186308
-0.0187696
-0.0188793
-0.0190176
-0.0192012
-0.0193527
-0.0194466
-0.0195703
-0.0197899
-0.0201031
-0.0204372
-0.0207425
-0.0209672
-0.0210726
-0.0211174
-0.0212104
-0.0213711
-0.0215331
-0.021695
-0.0219199
-0.022226
-0.0225269
-0.0227572
-0.0229409
-0.0231347
-0.0233719
-0.0236123
-0.0238501
-0.0240817
-0.0243075
-0.024536
-0.0248026
-0.0250607
-0.0252985
-0.0255563
-0.0258184
-0.026055
-0.0262886
-0.0265529
-0.0268098
-0.0270685
-0.0273108
-0.0275898
-0.0278635
-0.0281352
-0.0283792
-0.0286587
-0.0289661
-0.0292985
-0.0296255
-0.0299219
-0.0302334
-0.03052
-0.0308736
-0.0311935
-0.0315413
-0.0319087
-0.0322402
-0.0325981
-0.032946
-0.0332706
-0.0336839
-0.0340203
-0.0343624
-0.0348303
-0.0032012
-0.00593286
-0.0115855
-0.0167005
-0.0189634
-0.0187092
-0.0177975
-0.0173853
-0.0174758
-0.0176323
-0.0176145
-0.0174376
-0.0172168
-0.0171045
-0.0171421
-0.0172287
-0.0172741
-0.0172087
-0.0170437
-0.0169633
-0.0170385
-0.0171163
-0.0171288
-0.0171533
-0.0172237
-0.017312
-0.0174246
-0.0175812
-0.0177375
-0.0178541
-0.0179667
-0.0180867
-0.0181901
-0.0183007
-0.0184595
-0.0186295
-0.0187684
-0.0188789
-0.0190172
-0.0192002
-0.0193514
-0.0194454
-0.0195691
-0.0197883
-0.0201015
-0.020436
-0.0207418
-0.0209666
-0.0210718
-0.0211165
-0.0212097
-0.0213705
-0.0215325
-0.0216943
-0.0219192
-0.0222255
-0.0225265
-0.0227568
-0.0229404
-0.0231341
-0.0233715
-0.0236119
-0.0238497
-0.0240813
-0.0243071
-0.0245357
-0.0248024
-0.0250605
-0.0252982
-0.0255561
-0.0258182
-0.0260548
-0.0262884
-0.0265528
-0.0268096
-0.0270683
-0.0273106
-0.0275897
-0.0278634
-0.0281351
-0.028379
-0.0286585
-0.028966
-0.0292984
-0.0296254
-0.0299218
-0.0302333
-0.0305198
-0.0308735
-0.0311934
-0.0315411
-0.0319086
-0.0322401
-0.032598
-0.0329459
-0.0332705
-0.0336838
-0.0340203
-0.0343624
-0.0348305
-0.00374253
-0.00614578
-0.0114032
-0.0163536
-0.0187125
-0.0186082
-0.0177481
-0.0173335
-0.0174212
-0.0175817
-0.0175701
-0.0174032
-0.0171955
-0.0170939
-0.0171341
-0.0172165
-0.0172577
-0.0171941
-0.0170356
-0.0169591
-0.0170335
-0.0171103
-0.0171243
-0.0171502
-0.0172203
-0.017308
-0.0174208
-0.0175779
-0.0177348
-0.0178516
-0.0179642
-0.0180845
-0.018189
-0.0183003
-0.0184586
-0.0186277
-0.018767
-0.0188785
-0.019017
-0.0191991
-0.01935
-0.0194445
-0.0195682
-0.0197867
-0.0200994
-0.0204343
-0.0207408
-0.0209657
-0.0210706
-0.0211154
-0.0212089
-0.0213699
-0.0215317
-0.0216934
-0.0219184
-0.0222247
-0.022526
-0.0227563
-0.0229398
-0.0231335
-0.0233709
-0.0236114
-0.0238492
-0.0240809
-0.0243067
-0.0245353
-0.0248021
-0.0250602
-0.025298
-0.0255558
-0.025818
-0.0260546
-0.0262881
-0.0265526
-0.0268094
-0.0270682
-0.0273104
-0.0275895
-0.0278632
-0.0281349
-0.0283789
-0.0286583
-0.0289658
-0.0292982
-0.0296253
-0.0299216
-0.0302332
-0.0305196
-0.0308733
-0.0311933
-0.031541
-0.0319085
-0.03224
-0.0325979
-0.0329459
-0.0332705
-0.0336837
-0.0340203
-0.0343624
-0.0348308
-0.00426302
-0.00637484
-0.0112398
-0.0160105
-0.0184484
-0.0184966
-0.017697
-0.0172811
-0.0173641
-0.0175284
-0.0175238
-0.0173671
-0.0171729
-0.017082
-0.017125
-0.0172031
-0.0172399
-0.0171784
-0.0170268
-0.0169546
-0.0170281
-0.017104
-0.0171196
-0.0171472
-0.0172172
-0.0173044
-0.0174172
-0.0175746
-0.0177316
-0.0178484
-0.0179609
-0.0180818
-0.0181877
-0.0182998
-0.0184574
-0.0186255
-0.0187653
-0.0188781
-0.0190168
-0.019198
-0.0193486
-0.0194438
-0.0195677
-0.0197852
-0.0200971
-0.0204323
-0.0207394
-0.0209642
-0.0210689
-0.0211141
-0.0212081
-0.0213693
-0.021531
-0.0216926
-0.0219175
-0.0222239
-0.0225253
-0.0227556
-0.0229391
-0.0231327
-0.0233702
-0.0236108
-0.0238486
-0.0240802
-0.0243061
-0.0245349
-0.0248016
-0.0250597
-0.0252976
-0.0255556
-0.0258177
-0.0260543
-0.0262879
-0.0265523
-0.0268092
-0.027068
-0.0273102
-0.0275893
-0.0278631
-0.0281348
-0.0283787
-0.0286581
-0.0289656
-0.0292981
-0.0296251
-0.0299215
-0.030233
-0.0305195
-0.0308731
-0.0311931
-0.0315408
-0.0319084
-0.0322398
-0.0325978
-0.0329458
-0.0332704
-0.0336836
-0.0340204
-0.0343625
-0.0348312
-0.0047594
-0.00661712
-0.0110979
-0.0156738
-0.0181707
-0.018372
-0.0176431
-0.0172286
-0.0173054
-0.017473
-0.0174757
-0.0173296
-0.017149
-0.0170691
-0.017115
-0.0171888
-0.017221
-0.0171615
-0.0170172
-0.0169497
-0.0170225
-0.0170973
-0.0171147
-0.0171443
-0.0172144
-0.0173012
-0.017414
-0.0175714
-0.0177282
-0.0178447
-0.0179569
-0.0180785
-0.0181862
-0.0182993
-0.0184558
-0.0186228
-0.0187631
-0.0188775
-0.0190166
-0.0191968
-0.019347
-0.0194434
-0.0195679
-0.0197844
-0.020095
-0.0204302
-0.0207377
-0.020962
-0.0210663
-0.0211121
-0.0212072
-0.0213688
-0.0215305
-0.021692
-0.0219167
-0.022223
-0.0225245
-0.0227548
-0.0229382