/*--------------------------------*- C++ -*----------------------------------*\
| =========                 |                                                 |
| \\      /  F ield         | OpenFOAM: The Open Source CFD Toolbox           |
|  \\    /   O peration     | Version:  2506                                  |
|   \\  /    A nd           | Website:  www.openfoam.com                      |
|    \\/     M anipulation  |                                                 |
\*---------------------------------------------------------------------------*/
FoamFile
{
    version     2.0;
    format      ascii;
    arch        "LSB;label=32;scalar=64";
    class       surfaceScalarField;
    location    "6.55";
    object      phi;
}
// * * * * * * * * * * * * * * * * * * * * * * * * * * * * * * * * * * * * * //

dimensions      [0 3 -1 0 0 0 0];

oriented        oriented;

internalField   nonuniform List<scalar> 
19000
(
1.21559e-06
6.37948e-07
1.05066e-06
-5.58298e-07
1.16614e-06
4.3229e-07
1.23148e-06
1.64637e-06
1.09711e-06
-3.14944e-08
1.11062e-06
-4.70411e-07
1.2067e-06
7.38861e-07
1.11643e-06
3.81557e-07
1.16154e-06
7.5783e-07
1.13159e-06
6.00426e-07
1.11913e-06
-7.28571e-08
1.15583e-06
6.67452e-07
1.12455e-06
3.10927e-07
1.1258e-06
5.13445e-07
1.12817e-06
1.46078e-07
1.13763e-06
1.37545e-07
1.14987e-06
9.87985e-09
1.14842e-06
6.0112e-08
1.1537e-06
6.5087e-08
8.27137e-08
1.12827e-06
1.27193e-06
5.90276e-07
1.09741e-06
-3.83774e-07
1.223e-06
3.06696e-07
1.30009e-06
1.56928e-06
1.16208e-06
1.06515e-07
1.16868e-06
-4.77014e-07
1.26537e-06
6.42172e-07
1.1697e-06
4.77231e-07
1.21629e-06
7.11236e-07
1.19426e-06
6.22452e-07
1.17628e-06
-5.48721e-08
1.22592e-06
6.17811e-07
1.18532e-06
3.51529e-07
1.19752e-06
5.01241e-07
1.18502e-06
1.5858e-07
1.20951e-06
1.13051e-07
1.20108e-06
1.83152e-08
1.22305e-06
3.81445e-08
1.19855e-06
8.95836e-08
6.67296e-08
1.21453e-06
1.33073e-06
5.4233e-07
1.15187e-06
-2.04911e-07
1.27599e-06
1.82572e-07
1.3761e-06
1.46918e-06
1.23634e-06
2.46277e-07
1.22883e-06
-4.69508e-07
1.3247e-06
5.46304e-07
1.23814e-06
5.63787e-07
1.27202e-06
6.77362e-07
1.27348e-06
6.2099e-07
1.2389e-06
-2.02909e-08
1.30105e-06
5.55657e-07
1.2511e-06
4.0148e-07
1.26682e-06
4.8552e-07
1.24551e-06
1.79887e-07
1.26901e-06
8.95602e-08
1.26067e-06
2.6649e-08
1.27626e-06
2.25515e-08
1.26586e-06
9.99925e-08
7.14286e-08
1.26116e-06
1.39206e-06
4.9437e-07
1.21626e-06
-2.91033e-08
1.32937e-06
6.94534e-08
1.45608e-06
1.34247e-06
1.31749e-06
3.84864e-07
1.29357e-06
-4.45587e-07
1.38469e-06
4.55187e-07
1.31914e-06
6.29337e-07
1.33338e-06
6.63122e-07
1.35904e-06
5.9533e-07
1.3062e-06
3.25426e-08
1.36261e-06
4.99248e-07
1.3204e-06
4.43694e-07
1.32632e-06
4.79601e-07
1.30811e-06
1.98089e-07
1.32158e-06
7.60939e-08
1.32022e-06
2.80146e-08
1.32866e-06
1.4106e-08
1.32726e-06
1.0139e-07
7.98283e-08
1.31886e-06
1.45532e-06
4.47399e-07
1.29339e-06
1.32832e-07
1.38378e-06
-2.09413e-08
1.53294e-06
1.19331e-06
1.40248e-06
5.15325e-07
1.36287e-06
-4.05972e-07
1.44323e-06
3.74821e-07
1.40604e-06
6.66532e-07
1.4015e-06
6.67666e-07
1.43807e-06
5.5875e-07
1.37773e-06
9.28826e-08
1.4136e-06
4.63384e-07
1.39023e-06
4.67065e-07
1.3875e-06
4.82327e-07
1.37344e-06
2.12156e-07
1.37935e-06
7.01764e-08
1.3802e-06
2.71632e-08
1.38643e-06
7.87679e-09
1.38774e-06
1.00083e-07
8.72528e-08
1.38032e-06
1.51973e-06
4.0335e-07
1.38302e-06
2.6954e-07
1.44076e-06
-7.86864e-08
1.59961e-06
1.03447e-06
1.48861e-06
6.26315e-07
1.43641e-06
-3.53764e-07
1.49933e-06
3.11899e-07
1.48975e-06
6.76108e-07
1.47523e-06
6.82184e-07
1.50722e-06
5.26761e-07
1.45247e-06
1.47635e-07
1.46685e-06
4.4901e-07
1.45969e-06
4.7422e-07
1.45616e-06
4.85859e-07
1.44418e-06
2.24133e-07
1.44523e-06
6.91307e-08
1.44487e-06
2.75223e-08
1.44963e-06
3.11514e-09
1.45251e-06
9.71991e-08
9.38269e-08
1.44594e-06
1.58501e-06
3.64558e-07
1.48111e-06
3.73434e-07
1.50266e-06
-1.00235e-07
1.65453e-06
8.82604e-07
1.57434e-06
7.06505e-07
1.51378e-06
-2.93205e-07
1.55461e-06
2.71069e-07
1.56578e-06
6.6494e-07
1.55152e-06
6.96449e-07
1.57162e-06
5.06656e-07
1.52868e-06
1.90574e-07
1.52923e-06
4.48464e-07
1.53022e-06
4.7323e-07
1.53064e-06
4.85434e-07
1.52077e-06
2.34003e-07
1.51849e-06
7.14109e-08
1.51571e-06
3.03063e-08
1.51818e-06
6.42479e-10
1.52196e-06
9.34151e-08
9.95448e-08
1.51624e-06
1.65187e-06
3.32816e-07
1.58204e-06
4.43266e-07
1.57198e-06
-9.01797e-08
1.70313e-06
7.51463e-07
1.65894e-06
7.50688e-07
1.59471e-06
-2.28976e-07
1.61293e-06
2.52852e-07
1.63579e-06
6.42081e-07
1.62745e-06
7.04789e-07
1.63768e-06
4.96429e-07
1.60576e-06
2.22493e-07
1.60012e-06
4.54097e-07
1.60354e-06
4.69817e-07
1.60836e-06
4.80609e-07
1.60143e-06
2.40939e-07
1.59759e-06
7.52442e-08
1.5926e-06
3.53015e-08
1.59208e-06
1.15708e-09
1.5957e-06
8.97993e-08
1.04625e-07
1.59062e-06
1.72171e-06
3.08684e-07
1.68164e-06
4.8333e-07
1.65026e-06
-5.88017e-08
1.75379e-06
6.47935e-07
1.74201e-06
7.62465e-07
1.67892e-06
-1.6588e-07
1.67831e-06
2.53463e-07
1.70474e-06
6.15651e-07
1.70263e-06
7.06893e-07
1.70929e-06
4.89771e-07
1.68511e-06
2.46669e-07
1.67717e-06
4.62042e-07
1.68072e-06
4.66271e-07
1.68868e-06
4.72644e-07
1.68492e-06
2.44697e-07
1.68113e-06
7.90375e-08
1.67508e-06
4.13499e-08
1.6716e-06
4.63606e-09
1.6741e-06
8.72981e-08
1.09598e-07
1.66913e-06
1.79586e-06
2.91544e-07
1.77852e-06
5.00672e-07
1.73728e-06
-1.75676e-08
1.81317e-06
5.72045e-07
1.82384e-06
7.51798e-07
1.76603e-06
-1.0807e-07
1.75307e-06
2.66429e-07
1.77778e-06
5.9094e-07
1.77948e-06
7.05193e-07
1.78767e-06
4.81581e-07
1.76863e-06
2.6571e-07
1.7595e-06
4.71174e-07
1.76267e-06
4.63094e-07
1.77243e-06
4.62889e-07
1.77142e-06
2.45701e-07
1.76845e-06
8.2009e-08
1.76257e-06
4.72319e-08
1.75685e-06
1.03578e-08
1.75784e-06
8.63028e-08
1.14871e-07
1.75257e-06
1.87513e-06
2.80167e-07
1.87333e-06
5.02467e-07
1.83137e-06
2.43899e-08
1.88406e-06
5.1936e-07
1.90578e-06
7.30075e-07
1.85579e-06
-5.80788e-08
1.83727e-06
2.84949e-07
1.85836e-06
5.69853e-07
1.8614e-06
7.02148e-07
1.87257e-06
4.7041e-07
1.85723e-06
2.81053e-07
1.84733e-06
4.81076e-07
1.85028e-06
4.60144e-07
1.86075e-06
4.52414e-07
1.86172e-06
2.44733e-07
1.85959e-06
8.41433e-08
1.85453e-06
5.22922e-08
1.84752e-06
1.73666e-08
1.84714e-06
8.66768e-08
1.20466e-07
1.84155e-06
1.95975e-06
2.73258e-07
1.96768e-06
4.94535e-07
1.93052e-06
6.155e-08
1.96598e-06
4.83895e-07
1.98981e-06
7.06245e-07
1.94826e-06
-1.65203e-08
1.92947e-06
3.03736e-07
1.94751e-06
5.51812e-07
1.95064e-06
6.99018e-07
1.9634e-06
4.57648e-07
1.95093e-06
2.93522e-07
1.94083e-06
4.91178e-07
1.94389e-06
4.57082e-07
1.95431e-06
4.41993e-07
1.95639e-06
2.42653e-07
1.95472e-06
8.58149e-08
1.95052e-06
5.64941e-08
1.94303e-06
2.48602e-08
1.94163e-06
8.8073e-08
1.26106e-07
1.93599e-06
2.04974e-06
2.69707e-07
2.06331e-06
4.80964e-07
2.03322e-06
9.16375e-08
2.05696e-06
4.60159e-07
2.07778e-06
6.85429e-07
2.04386e-06
1.73984e-08
2.02786e-06
3.19735e-07
2.04432e-06
5.35354e-07
2.04742e-06
6.95908e-07
2.0596e-06
4.4547e-07
2.04942e-06
3.03703e-07
2.03975e-06
5.00848e-07
2.04325e-06
4.5358e-07
2.05311e-06
4.32134e-07
2.05556e-06
2.40212e-07
2.05392e-06
8.74497e-08
2.05023e-06
6.01882e-08
2.04278e-06
3.23067e-08
2.04069e-06
9.01663e-08
1.31456e-07
2.03534e-06
2.14514e-06
2.68564e-07
2.16172e-06
4.64392e-07
2.13872e-06
1.14632e-07
2.15491e-06
4.43966e-07
2.17093e-06
6.69409e-07
2.14321e-06
4.51235e-08
2.13105e-06
3.31891e-07
2.14706e-06
5.19347e-07
2.15063e-06
6.92342e-07
2.16066e-06
4.35433e-07
2.15236e-06
3.12001e-07
2.14359e-06
5.09617e-07
2.14777e-06
4.49408e-07
2.15681e-06
4.23096e-07
2.15904e-06
2.3798e-07
2.15716e-06
8.93246e-08
2.15347e-06
6.38811e-08
2.14635e-06
3.94261e-08
2.14381e-06
9.27098e-08
1.36309e-07
2.13895e-06
2.24608e-06
2.68975e-07
2.26395e-06
4.46516e-07
2.24685e-06
1.31734e-07
2.25841e-06
4.32411e-07
2.26997e-06
6.57847e-07
2.2469e-06
6.81885e-08
2.23836e-06
3.40432e-07
2.25432e-06
5.03391e-07
2.25889e-06
6.87771e-07
2.26614e-06
4.28185e-07
2.25949e-06
3.18644e-07
2.25188e-06
5.17234e-07
2.25686e-06
4.44427e-07
2.26506e-06
4.14891e-07
2.2667e-06
2.36346e-07
2.26451e-06
9.15092e-08
2.26032e-06
6.80755e-08
2.25358e-06
4.61649e-08
2.25078e-06
9.5506e-08
1.40654e-07
2.24644e-06
2.35267e-06
2.70179e-07
2.37068e-06
4.28504e-07
2.35792e-06
1.445e-07
2.36673e-06
4.236e-07
2.37512e-06
6.49453e-07
2.35541e-06
8.79026e-08
2.34975e-06
3.46092e-07
2.36546e-06
4.87681e-07
2.37133e-06
6.81898e-07
2.37577e-06
4.23746e-07
2.37068e-06
3.23737e-07
2.36433e-06
5.23584e-07
2.3702e-06
4.38554e-07
2.37779e-06
4.07299e-07
2.37858e-06
2.35563e-07
2.37616e-06
9.39285e-08
2.37109e-06
7.31454e-08
2.36456e-06
5.26895e-08
2.3617e-06
9.83722e-08
1.44611e-07
2.35774e-06
2.46502e-06
2.71555e-07
2.48233e-06
4.11193e-07
2.47253e-06
1.543e-07
2.47974e-06
4.16389e-07
2.48644e-06
6.42758e-07
2.46911e-06
1.05232e-07
2.46564e-06
3.4956e-07
2.48058e-06
4.72742e-07
2.48769e-06
6.74789e-07
2.48959e-06
4.21846e-07
2.48603e-06
3.27295e-07
2.48102e-06
5.28592e-07
2.48782e-06
4.31761e-07
2.49517e-06
3.99941e-07
2.49492e-06
2.35812e-07
2.49238e-06
9.64769e-08
2.48628e-06
7.92416e-08
2.47961e-06
5.93621e-08
2.47686e-06
1.01119e-07
1.48333e-07
2.47314e-06
2.58321e-06
2.72641e-07
2.59927e-06
3.95134e-07
2.5914e-06
1.62165e-07
2.59766e-06
4.10131e-07
2.60395e-06
6.36467e-07
2.58831e-06
1.2087e-07
2.58658e-06
3.51299e-07
2.60016e-06
4.59157e-07
2.60817e-06
6.66782e-07
2.6079e-06
4.22117e-07
2.60592e-06
3.2927e-07
2.60234e-06
5.32173e-07
2.60996e-06
4.24139e-07
2.6175e-06
3.92399e-07
2.61606e-06
2.37255e-07
2.61341e-06
9.91222e-08
2.60641e-06
8.6249e-08
2.59913e-06
6.66414e-08
2.59667e-06
1.03573e-07
1.51885e-07
2.59312e-06
2.70736e-06
2.73111e-07
2.72189e-06
3.80606e-07
2.71518e-06
1.68869e-07
2.72086e-06
4.04452e-07
2.72782e-06
6.2951e-07
2.71326e-06
1.35427e-07
2.7129e-06
3.51657e-07
2.7247e-06
4.47363e-07
2.73324e-06
6.58235e-07
2.73121e-06
4.24153e-07
2.73086e-06
3.29623e-07
2.72876e-06
5.34267e-07
2.73693e-06
4.15967e-07
2.74503e-06
3.843e-07
2.74229e-06
2.39997e-07
2.73948e-06
1.01931e-07
2.73192e-06
9.38095e-08
2.72363e-06
7.49315e-08
2.72157e-06
1.05633e-07
1.55182e-07
2.71827e-06
2.83764e-06
2.72744e-07
2.85056e-06
3.67682e-07
2.84442e-06
1.75004e-07
2.84975e-06
3.99124e-07
2.85824e-06
6.21022e-07
2.84411e-06
1.49558e-07
2.84476e-06
3.51009e-07
2.85459e-06
4.37533e-07
2.86351e-06
6.4931e-07
2.86015e-06
4.27514e-07
2.86135e-06
3.28428e-07
2.8607e-06
5.34909e-07
2.86895e-06
4.07719e-07
2.87788e-06
3.75368e-07
2.8739e-06
2.43983e-07
2.87078e-06
1.05049e-07
2.86321e-06
1.01383e-07
2.8537e-06
8.44394e-08
2.85196e-06
1.07371e-07
1.57959e-07
2.84918e-06
2.97424e-06
2.71396e-07
2.98559e-06
3.56339e-07
2.97967e-06
1.80921e-07
2.98473e-06
3.94061e-07
2.99537e-06
6.10386e-07
2.98101e-06
1.63922e-07
2.98228e-06
3.49735e-07
2.99024e-06
4.29575e-07
2.99957e-06
6.39983e-07
2.99535e-06
4.31736e-07
2.99786e-06
3.25914e-07
2.99853e-06
5.34241e-07
3.00627e-06
3.99972e-07
3.0162e-06
3.65447e-07
3.01122e-06
2.48959e-07
3.00758e-06
1.08687e-07
3.00062e-06
1.08343e-07
2.98995e-06
9.51113e-08
2.98822e-06
1.09097e-07
1.59817e-07
2.98637e-06
3.11741e-06
2.68989e-07
3.1272e-06
3.46553e-07
3.12147e-06
1.86651e-07
3.12619e-06
3.89341e-07
3.13928e-06
5.97296e-07
3.12417e-06
1.79026e-07
3.12581e-06
3.481e-07
3.13217e-06
4.23212e-07
3.14197e-06
6.30183e-07
3.13733e-06
4.36377e-07
3.14082e-06
3.22424e-07
3.14264e-06
5.32419e-07
3.14933e-06
3.93285e-07
3.16028e-06
3.54498e-07
3.15469e-06
2.5455e-07
3.15028e-06
1.13097e-07
3.1445e-06
1.14121e-07
3.13298e-06
1.06629e-07
3.13075e-06
1.11328e-07
1.60345e-07
3.13022e-06
3.26742e-06
2.65483e-07
3.27562e-06
3.38347e-07
3.27033e-06
1.91948e-07
3.2745e-06
3.85167e-07
3.29003e-06
5.81764e-07
3.27394e-06
1.95117e-07
3.27584e-06
3.46203e-07
3.28097e-06
4.18075e-07
3.29123e-06
6.19929e-07
3.28652e-06
4.41086e-07
3.29061e-06
3.18335e-07
3.29351e-06
5.29522e-07
3.29871e-06
3.88084e-07
3.31058e-06
3.42621e-07
3.3048e-06
2.60332e-07
3.29934e-06
1.18557e-07
3.29511e-06
1.18355e-07
3.28329e-06
1.18443e-07
3.27996e-06
1.14657e-07
1.59304e-07
3.28101e-06
3.42457e-06
2.60849e-07
3.43114e-06
3.31776e-07
3.42665e-06
1.96435e-07
3.43003e-06
3.8179e-07
3.44778e-06
5.64014e-07
3.4307e-06
2.12195e-07
3.43286e-06
3.44039e-07
3.43718e-06
4.13756e-07
3.44775e-06
6.09356e-07
3.44323e-06
4.45614e-07
3.44757e-06
3.13993e-07
3.45156e-06
5.25525e-07
3.45505e-06
3.84595e-07
3.46764e-06
3.3004e-07
3.46208e-06
2.65887e-07
3.45532e-06
1.25317e-07
3.45267e-06
1.21005e-07
3.44127e-06
1.29843e-07
3.43635e-06
1.19582e-07
1.5679e-07
3.43886e-06
3.58921e-06
2.55051e-07
3.59409e-06
3.26899e-07
3.59076e-06
1.99765e-07
3.59313e-06
3.79418e-07
3.61278e-06
5.44361e-07
3.59488e-06
2.30095e-07
3.5973e-06
3.41618e-07
3.60122e-06
4.09835e-07
3.6119e-06
5.98681e-07
3.60771e-06
4.49803e-07
3.61202e-06
3.09682e-07
3.61719e-06
5.2036e-07
3.61894e-06
3.82842e-07
3.6319e-06
3.1708e-07
3.62698e-06
2.70806e-07
3.61876e-06
1.3354e-07
3.61741e-06
1.22351e-07
3.60718e-06
1.40073e-07
3.60046e-06
1.26304e-07
1.53363e-07
3.60389e-06
3.7617e-06
2.48056e-07
3.76486e-06
3.23734e-07
3.76292e-06
2.01706e-07
3.76416e-06
3.78184e-07
3.78538e-06
5.23139e-07
3.76692e-06
2.48554e-07
3.76949e-06
3.39051e-07
3.77344e-06
4.05883e-07
3.78398e-06
5.88139e-07
3.78022e-06
4.5356e-07
3.78431e-06
3.05591e-07
3.79069e-06
5.13987e-07
3.79084e-06
3.82692e-07
3.80378e-06
3.04132e-07
3.79991e-06
2.74682e-07
3.79019e-06
1.43258e-07
3.7896e-06
1.22946e-07
3.78123e-06
1.48442e-07
3.77288e-06
1.3465e-07
1.49984e-07
3.77626e-06
3.94239e-06
2.39852e-07
3.94389e-06
3.22238e-07
3.94344e-06
2.02153e-07
3.94349e-06
3.78134e-07
3.96595e-06
5.0068e-07
3.94726e-06
2.67247e-07
3.94973e-06
3.36578e-07
3.95413e-06
4.01481e-07
3.96435e-06
5.77926e-07
3.96103e-06
4.56871e-07
3.9648e-06
3.01821e-07
3.9724e-06
5.0639e-07
3.97115e-06
3.83942e-07
3.98368e-06
2.91601e-07
3.98121e-06
2.77152e-07
3.97013e-06
1.54347e-07
3.96963e-06
1.23445e-07
3.96359e-06
1.54479e-07
3.95413e-06
1.44109e-07
1.47732e-07
3.95638e-06
4.13164e-06
2.30461e-07
4.13157e-06
3.22305e-07
4.13264e-06
2.0109e-07
4.13153e-06
3.79237e-07
4.15489e-06
4.77325e-07
4.13634e-06
2.85798e-07
4.13837e-06
3.34548e-07
4.14361e-06
3.96245e-07
4.15338e-06
5.68153e-07
4.15045e-06
4.59797e-07
4.15389e-06
2.98384e-07
4.1627e-06
4.97578e-07
4.16028e-06
3.86365e-07
4.17202e-06
2.79862e-07
4.17121e-06
2.77954e-07
4.15903e-06
1.66533e-07
4.15797e-06
1.245e-07
4.1544e-06
1.58048e-07
4.14469e-06
1.53823e-07
1.47553e-07
4.14487e-06
4.32982e-06
2.19947e-07
4.32833e-06
3.23788e-07
4.33087e-06
1.98557e-07
4.32873e-06
3.81372e-07
4.3526e-06
4.53452e-07
4.33463e-06
3.03773e-07
4.33579e-06
3.33386e-07
4.34217e-06
3.89863e-07
4.35152e-06
5.5881e-07
4.34884e-06
4.62474e-07
4.35197e-06
2.95256e-07
4.362e-06
4.87548e-07
4.35861e-06
3.89749e-07
4.3692e-06
2.69275e-07
4.37023e-06
2.76922e-07
4.35731e-06
1.79456e-07
4.3551e-06
1.26708e-07
4.35387e-06
1.59283e-07
4.34486e-06
1.62831e-07
1.49913e-07
4.3425e-06
4.53732e-06
2.08403e-07
4.53458e-06
3.26523e-07
4.5385e-06
1.94636e-07
4.53556e-06
3.84312e-07
4.55951e-06
4.29506e-07
4.5426e-06
3.20681e-07
4.54246e-06
3.33529e-07
4.55016e-06
3.82159e-07
4.55924e-06
5.49733e-07
4.55663e-06
4.65086e-07
4.55946e-06
2.92423e-07
4.57073e-06
4.76278e-07
4.5666e-06
3.93885e-07
4.57567e-06
2.60203e-07
4.57862e-06
2.73973e-07
4.56537e-06
1.92699e-07
4.56153e-06
1.30556e-07
4.56222e-06
1.58584e-07
4.55485e-06
1.70206e-07
1.54619e-07
4.55014e-06
4.75458e-06
1.95936e-07
4.75075e-06
3.30356e-07
4.75593e-06
1.89459e-07
4.75255e-06
3.8769e-07
4.77604e-06
4.06015e-07
4.76076e-06
3.35958e-07
4.75891e-06
3.35377e-07
4.76793e-06
3.7314e-07
4.77703e-06
5.40631e-07
4.7743e-06
4.67821e-07
4.77679e-06
2.89927e-07
4.78933e-06
4.63738e-07
4.78469e-06
3.98524e-07
4.79187e-06
2.5303e-07
4.79677e-06
2.6907e-07
4.7836e-06
2.0587e-07
4.77784e-06
1.36313e-07
4.77985e-06
1.56578e-07
4.77479e-06
1.75265e-07
1.60881e-07
4.76853e-06
4.98208e-06
1.82653e-07
4.9773e-06
3.35138e-07
4.98351e-06
1.83245e-07
4.98021e-06
3.90998e-07
5.00263e-06
3.83587e-07
4.9896e-06
3.48995e-07
4.98576e-06
3.39213e-07
4.99586e-06
3.63046e-07
5.00537e-06
5.31115e-07
5.00238e-06
4.70811e-07
5.00442e-06
2.87893e-07
5.01824e-06
4.4992e-07
5.01342e-06
4.03338e-07
5.0183e-06
2.48153e-07
5.02506e-06
2.6231e-07
5.01257e-06
2.18356e-07
5.00481e-06
1.44075e-07
5.00725e-06
1.54142e-07
5.00481e-06
1.77705e-07
1.6748e-07
4.99821e-06
5.22031e-06
1.68659e-07
5.21474e-06
3.40705e-07
5.22167e-06
1.76318e-07
5.21909e-06
3.93576e-07
5.23977e-06
3.62908e-07
5.22963e-06
3.59138e-07
5.22366e-06
3.45178e-07
5.23437e-06
3.52336e-07
5.24471e-06
5.20773e-07
5.24144e-06
4.7408e-07
5.24281e-06
2.86526e-07
5.25788e-06
4.3485e-07
5.25329e-06
4.07927e-07
5.25553e-06
2.45915e-07
5.26392e-06
2.53916e-07
5.25281e-06
2.29469e-07
5.24312e-06
1.53762e-07
5.24521e-06
1.52052e-07
5.24511e-06
1.77808e-07
1.73217e-07
5.23937e-06
5.46979e-06
1.54059e-07
5.46364e-06
3.46853e-07
5.47083e-06
1.69133e-07
5.46977e-06
3.9463e-07
5.48794e-06
3.44742e-07
5.48129e-06
3.65784e-07
5.47328e-06
3.5319e-07
5.48397e-06
3.41646e-07
5.49549e-06
5.09255e-07
5.49206e-06
4.77511e-07
5.49251e-06
2.86076e-07
5.50871e-06
4.18649e-07
5.50486e-06
4.11782e-07
5.50417e-06
2.46605e-07
5.5138e-06
2.44285e-07
5.5048e-06
2.38465e-07
5.49337e-06
1.65191e-07
5.49448e-06
1.50945e-07
5.49615e-06
1.76135e-07
1.77296e-07
5.49207e-06
5.73104e-06
1.38974e-07
5.72459e-06
3.53311e-07
5.73147e-06
1.6225e-07
5.7328e-06
3.93294e-07
5.74771e-06
3.29836e-07
5.74483e-06
3.68668e-07
5.73527e-06
3.62744e-07
5.7452e-06
3.3172e-07
5.75816e-06
4.96299e-07
5.75482e-06
4.80848e-07
5.75408e-06
2.8681e-07
5.77122e-06
4.01518e-07
5.76863e-06
4.1437e-07
5.76497e-06
2.50266e-07
5.77512e-06
2.34133e-07
5.76898e-06
2.44603e-07
5.75618e-06
1.77995e-07
5.75573e-06
1.51396e-07
5.75868e-06
1.73177e-07
1.79485e-07
5.7565e-06
6.00462e-06
1.23545e-07
5.9982e-06
3.59735e-07
6.00415e-06
1.56301e-07
6.00872e-06
3.88716e-07
6.0198e-06
3.18765e-07
6.02048e-06
3.67981e-07
6.01025e-06
3.72975e-07
6.01867e-06
3.23298e-07
6.03319e-06
4.81785e-07
6.0303e-06
4.83736e-07
6.02816e-06
2.88948e-07
6.0459e-06
3.83774e-07
6.04512e-06
4.15155e-07
6.03871e-06
2.56672e-07
6.04841e-06
2.24437e-07
6.0457e-06
2.4731e-07
6.03218e-06
1.91514e-07
6.02967e-06
1.53908e-07
6.03334e-06
1.69501e-07
1.79765e-07
6.03306e-06
6.29108e-06
1.07949e-07
6.28512e-06
3.65696e-07
6.28949e-06
1.51931e-07
6.29799e-06
3.80218e-07
6.30503e-06
3.11728e-07
6.3086e-06
3.64406e-07
6.29877e-06
3.82806e-07
6.3051e-06
3.1697e-07
6.32106e-06
4.65825e-07
6.31907e-06
4.85725e-07
6.3154e-06
2.92616e-07
6.33336e-06
3.65814e-07
6.3348e-06
4.13722e-07
6.32614e-06
2.65329e-07
6.33431e-06
2.1627e-07
6.33526e-06
2.46355e-07
6.32205e-06
2.04724e-07
6.31708e-06
1.5888e-07
6.32082e-06
1.65761e-07
1.78184e-07
6.3224e-06
6.59102e-06
9.23956e-08
6.58602e-06
3.70695e-07
6.58821e-06
1.49744e-07
6.60095e-06
3.67479e-07
6.60429e-06
3.08386e-07
6.60969e-06
3.59004e-07
6.60134e-06
3.91162e-07
6.6053e-06
3.13012e-07
6.6223e-06
4.48825e-07
6.6217e-06
4.86317e-07
6.61654e-06
2.97779e-07
6.63418e-06
3.48174e-07
6.63817e-06
4.09734e-07
6.6279e-06
2.75603e-07
6.63366e-06
2.10503e-07
6.63805e-06
2.41972e-07
6.62624e-06
2.16526e-07
6.61886e-06
1.66259e-07
6.62185e-06
1.62776e-07
1.74893e-07
6.62514e-06
6.90506e-06
7.71279e-08
6.90157e-06
3.74179e-07
6.90109e-06
1.50223e-07
6.91792e-06
3.50655e-07
6.91846e-06
3.0784e-07
6.92442e-06
3.53047e-07
6.91848e-06
3.97104e-07
6.92009e-06
3.11401e-07
6.93752e-06
4.31391e-07
6.93874e-06
4.85104e-07
6.93228e-06
3.04232e-07
6.94905e-06
3.31405e-07
6.95567e-06
4.03116e-07
6.94462e-06
2.86659e-07
6.94737e-06
2.07747e-07
6.95442e-06
2.34921e-07
6.94512e-06
2.25827e-07
6.93588e-06
1.75502e-07
6.93729e-06
1.61364e-07
1.70324e-07
6.94186e-06
7.23385e-06
6.24104e-08
7.23246e-06
3.75569e-07
7.229e-06
1.53692e-07
7.24928e-06
3.30372e-07
7.24835e-06
3.08773e-07
7.2536e-06
3.47795e-07
7.25068e-06
4.00017e-07
7.25032e-06
3.11768e-07
7.26745e-06
4.14263e-07
7.27071e-06
4.81841e-07
7.26333e-06
3.11615e-07
7.27871e-06
3.1602e-07
7.28783e-06
3.93993e-07
7.27683e-06
2.97663e-07
7.27631e-06
2.08266e-07
7.28496e-06
2.26269e-07
7.27902e-06
2.31768e-07
7.2688e-06
1.85718e-07
7.26811e-06
1.62055e-07
1.65265e-07
7.27317e-06
7.57811e-06
4.85251e-08
7.57939e-06
3.7429e-07
7.5728e-06
1.60284e-07
7.59554e-06
3.07626e-07
7.59464e-06
3.0968e-07
7.59816e-06
3.44274e-07
7.5984e-06
3.99773e-07
7.59677e-06
3.13399e-07
7.61288e-06
3.98158e-07
7.61816e-06
4.76558e-07
7.61036e-06
3.19411e-07
7.62395e-06
3.02431e-07
7.63517e-06
3.82771e-07
7.62508e-06
3.07759e-07
7.62136e-06
2.1198e-07
7.63046e-06
2.17169e-07
7.62821e-06
2.34019e-07
7.61815e-06
1.95777e-07
7.61535e-06
1.64859e-07
1.60732e-07
7.61988e-06
7.93858e-06
3.57585e-08
7.94303e-06
3.69841e-07
7.93339e-06
1.69919e-07
7.95733e-06
2.83683e-07
7.95794e-06
3.09077e-07
7.95908e-06
3.43133e-07
7.96209e-06
3.96765e-07
7.96014e-06
3.15344e-07
7.97469e-06
3.83614e-07
7.98172e-06
4.69524e-07
7.97401e-06
3.27123e-07
7.98551e-06
2.90929e-07
7.99835e-06
3.69928e-07
7.98988e-06
3.16235e-07
7.98342e-06
2.18441e-07
7.99174e-06
2.08842e-07
7.99326e-06
2.32504e-07
7.98435e-06
2.04684e-07
7.97982e-06
1.69385e-07
1.57501e-07
7.98306e-06
8.31605e-06
2.43918e-08
8.32406e-06
3.61831e-07
8.31167e-06
1.82302e-07
8.33542e-06
2.59942e-07
8.33879e-06
3.05702e-07
8.33741e-06
3.44517e-07
8.34236e-06
3.91807e-07
8.34103e-06
3.16677e-07
8.35377e-06
3.70875e-07
8.36211e-06
4.61184e-07
8.3548e-06
3.34434e-07
8.36409e-06
2.81637e-07
8.37805e-06
3.55967e-07
8.37177e-06
3.2252e-07
8.36336e-06
2.2685e-07
8.36985e-06
2.02352e-07
8.37474e-06
2.27615e-07
8.36789e-06
2.11534e-07
8.36219e-06
1.75082e-07
1.5589e-07
8.3638e-06
8.71137e-06
1.46848e-08
8.72319e-06
3.50013e-07
8.70854e-06
1.96953e-07
8.73067e-06
2.3781e-07
8.73772e-06
2.98651e-07
8.73421e-06
3.48031e-07
8.73997e-06
3.86043e-07
8.73996e-06
3.16683e-07
8.75102e-06
3.59823e-07
8.76005e-06
4.52152e-07
8.75327e-06
3.41215e-07
8.76032e-06
2.74587e-07
8.77497e-06
3.41317e-07
8.77134e-06
3.26146e-07
8.76192e-06
2.36268e-07
8.76593e-06
1.98343e-07
8.77331e-06
2.20233e-07
8.76933e-06
2.15521e-07
8.76318e-06
1.81232e-07
1.55955e-07
8.76311e-06
9.12544e-06
6.86746e-09
9.14117e-06
3.34279e-07
9.1249e-06
2.13225e-07
9.14411e-06
2.18602e-07
9.15527e-06
2.87487e-07
9.15046e-06
3.52844e-07
9.15581e-06
3.80688e-07
9.15734e-06
3.15154e-07
9.16715e-06
3.50012e-07
9.17629e-06
4.43014e-07
9.17009e-06
3.47417e-07
9.17487e-06
2.69809e-07
9.19001e-06
3.2617e-07
9.18932e-06
3.26835e-07
9.17991e-06
2.45681e-07
9.1812e-06
1.97054e-07
9.18985e-06
2.11586e-07
9.18929e-06
2.16078e-07
9.18345e-06
1.87073e-07
1.57489e-07
9.18191e-06
9.55922e-06
1.10406e-09
9.57876e-06
3.14742e-07
9.56171e-06
2.30274e-07
9.57688e-06
2.03436e-07
9.59214e-06
2.72222e-07
9.58702e-06
3.57965e-07
9.59072e-06
3.76989e-07
9.59361e-06
3.12264e-07
9.60285e-06
3.40777e-07
9.61193e-06
4.33927e-07
9.60638e-06
3.52968e-07
9.60907e-06
2.67121e-07
9.62443e-06
3.10807e-07
9.62668e-06
3.24593e-07
9.61815e-06
2.54209e-07
9.61694e-06
1.98261e-07
9.6255e-06
2.0303e-07
9.62836e-06
2.13219e-07
9.62374e-06
1.91685e-07
1.60095e-07
9.62114e-06
1.00138e-05
-2.52596e-09
1.00367e-05
2.91831e-07
1.002e-05
2.46974e-07
1.00302e-05
1.93219e-07
1.00489e-05
2.53471e-07
1.00447e-05
3.62222e-07
1.00457e-05
3.7598e-07
1.00494e-05
3.08561e-07
1.00592e-05
3.31007e-07
1.00684e-05
4.24724e-07
1.00635e-05
3.57807e-07
1.00643e-05
2.66393e-07
1.00794e-05
2.95642e-07
1.00846e-05
3.194e-07
1.00775e-05
2.61285e-07
1.00743e-05
2.01469e-07
1.00816e-05
1.95722e-07
1.00873e-05
2.0752e-07
1.00847e-05
1.94295e-07
1.6314e-07
1.00817e-05
1.04902e-05
-4.05077e-09
1.05157e-05
2.66289e-07
1.05007e-05
2.61999e-07
1.05053e-05
1.88568e-07
1.05265e-05
2.32271e-07
1.05247e-05
3.6401e-07
1.05226e-05
3.78146e-07
1.05259e-05
3.05242e-07
1.0537e-05
3.19911e-07
1.05471e-05
4.14653e-07
1.05429e-05
3.61928e-07
1.05416e-05
2.67725e-07
1.05559e-05
2.81341e-07
1.0564e-05
3.11263e-07
1.0559e-05
2.66377e-07
1.05544e-05
2.05982e-07
1.05598e-05
1.90387e-07
1.05673e-05
2.00042e-07
1.05672e-05
1.9437e-07
1.65958e-07
1.05644e-05
1.09896e-05
-3.63163e-09
1.10167e-05
2.39143e-07
1.10048e-05
2.73992e-07
1.10037e-05
1.8957e-07
1.10261e-05
2.09921e-07
1.10285e-05
3.61564e-07
1.10236e-05
3.831e-07
1.10247e-05
3.04089e-07
1.1037e-05
3.07669e-07
1.10489e-05
4.02773e-07
1.10459e-05
3.64904e-07
1.10427e-05
2.70959e-07
1.10553e-05
2.68746e-07
1.10659e-05
3.00633e-07
1.10632e-05
2.6902e-07
1.10583e-05
2.10966e-07
1.10613e-05
1.8735e-07
1.10694e-05
1.9193e-07
1.10719e-05
1.91871e-07
1.67888e-07
1.107e-05
1.15133e-05
-1.57599e-09
1.15409e-05
2.11597e-07
1.15332e-05
2.81657e-07
1.1527e-05
1.95774e-07
1.15487e-05
1.88237e-07
1.15563e-05
3.53921e-07
1.15503e-05
3.89147e-07
1.15479e-05
3.06406e-07
1.15601e-05
2.95471e-07
1.15744e-05
3.88528e-07
1.15732e-05
3.66061e-07
1.15687e-05
2.75535e-07
1.15788e-05
2.58591e-07
1.15912e-05
2.88225e-07
1.15913e-05
2.6898e-07
1.15867e-05
2.15536e-07
1.15876e-05
1.86469e-07
1.15952e-05
1.84289e-07
1.15999e-05
1.87145e-07
1.68421e-07
1.15994e-05
1.20626e-05
1.67552e-09
1.20893e-05
1.84897e-07
1.2087e-05
2.83972e-07
1.20765e-05
2.06216e-07
1.20955e-05
1.69296e-07
1.21086e-05
3.40796e-07
1.21033e-05
3.94428e-07
1.20975e-05
3.12169e-07
1.2108e-05
2.85035e-07
1.21245e-05
3.72021e-07
1.21259e-05
3.64675e-07
1.21207e-05
2.80723e-07
1.2128e-05
2.51237e-07
1.21413e-05
2.74985e-07
1.2144e-05
2.66208e-07
1.21406e-05
2.19016e-07
1.21399e-05
1.87081e-07
1.21462e-05
1.78047e-07
1.21524e-05
1.8089e-07
1.67201e-07
1.21537e-05
1.26387e-05
5.61132e-09
1.26634e-05
1.6014e-07
1.2667e-05
2.80416e-07
1.26538e-05
2.1938e-07
1.2668e-05
1.55146e-07
1.26862e-05
3.22598e-07
1.26834e-05
3.97169e-07
1.2675e-05
3.20564e-07
1.26823e-05
2.77782e-07
1.27003e-05
3.54002e-07
1.27047e-05
3.60268e-07
1.26998e-05
2.85666e-07
1.27043e-05
2.46645e-07
1.27174e-05
2.61924e-07
1.27227e-05
2.60884e-07
1.27208e-05
2.20985e-07
1.27195e-05
1.883e-07
1.2724e-05
1.73603e-07
1.27307e-05
1.74132e-07
1.64125e-07
1.27338e-05
1.32428e-05
9.71722e-09
1.32647e-05
1.38233e-07
1.32741e-05
2.7105e-07
1.326e-05
2.33432e-07
1.3268e-05
1.47198e-07
1.32899e-05
3.00707e-07
1.32914e-05
3.95633e-07
1.32813e-05
3.30714e-07
1.32848e-05
2.7423e-07
1.33032e-05
3.35626e-07
1.33107e-05
3.52753e-07
1.33069e-05
2.89473e-07
1.33091e-05
2.44429e-07
1.33211e-05
2.499e-07
1.33286e-05
2.53473e-07
1.33284e-05
2.21173e-07
1.33273e-05
1.89403e-07
1.33302e-05
1.7066e-07
1.33364e-05
1.67908e-07
1.59465e-07
1.33411e-05
1.38764e-05
1.35175e-08
1.38949e-05
1.19723e-07
1.39093e-05
2.56584e-07
1.38961e-05
2.46676e-07
1.38974e-05
1.45893e-07
1.3921e-05
2.77142e-07
1.39277e-05
3.88936e-07
1.39172e-05
3.41156e-07
1.39174e-05
2.74085e-07
1.39347e-05
3.18249e-07
1.39452e-05
3.42342e-07
1.39432e-05
2.91452e-07
1.39437e-05
2.43858e-07
1.3954e-05
2.39634e-07
1.39628e-05
2.44636e-07
1.39646e-05
2.19406e-07
1.3964e-05
1.89981e-07
1.39662e-05
1.68529e-07
1.39713e-05
1.62773e-07
1.54011e-07
1.39768e-05
1.45406e-05
1.66266e-08
1.45552e-05
1.05092e-07
1.45737e-05
2.38056e-07
1.45629e-05
2.57472e-07
1.45579e-05
1.50927e-07
1.45805e-05
2.54545e-07
1.45923e-05
3.77106e-07
1.45839e-05
3.49608e-07
1.45813e-05
2.76683e-07
1.45966e-05
3.02918e-07
1.46093e-05
3.29592e-07
1.46096e-05
2.91158e-07
1.46094e-05
2.44078e-07
1.46177e-05
2.31355e-07
1.46272e-05
2.35136e-07
1.46308e-05
2.15767e-07
1.46311e-05
1.89695e-07
1.46329e-05
1.66714e-07
1.46372e-05
1.58558e-07
1.4873e-07
1.46424e-05
1.52367e-05
1.88336e-08
1.52476e-05
9.41581e-08
1.52688e-05
2.16865e-07
1.52609e-05
2.65369e-07
1.52505e-05
1.613e-07
1.5269e-05
2.36078e-07
1.52862e-05
3.59866e-07
1.5282e-05
3.53829e-07
1.52778e-05
2.80854e-07
1.52906e-05
2.9016e-07
1.53047e-05
3.1548e-07
1.53076e-05
2.88284e-07
1.53073e-05
2.44375e-07
1.53138e-05
2.24874e-07
1.53231e-05
2.25771e-07
1.53284e-05
2.10498e-07
1.53298e-05
1.88313e-07
1.53316e-05
1.64909e-07
1.53353e-05
1.54864e-07
1.44043e-07
1.534e-05
1.5966e-05
2.01352e-08
1.59751e-05
8.51135e-08
1.59951e-05
1.96868e-07
1.59899e-05
2.705e-07
1.59769e-05
1.7429e-07
1.59891e-05
2.23913e-07
1.60112e-05
3.37822e-07
1.60125e-05
3.52449e-07
1.60085e-05
2.84889e-07
1.60185e-05
2.80172e-07
1.6033e-05
3.00983e-07
1.60384e-05
2.82862e-07
1.60388e-05
2.4402e-07
1.60438e-05
2.19883e-07
1.60525e-05
2.1701e-07
1.60589e-05
2.04105e-07
1.60615e-05
1.85676e-07
1.60636e-05
1.62893e-07
1.60671e-05
1.51345e-07
1.39895e-07
1.60712e-05
1.673e-05
2.07852e-08
1.67295e-05
8.55279e-08
1.67495e-05
1.76918e-07
1.67521e-05
2.67879e-07
1.67398e-05
1.86609e-07
1.6747e-05
2.16731e-07
1.67701e-05
3.14687e-07
1.6777e-05
3.45604e-07
1.67743e-05
2.87509e-07
1.67819e-05
2.72558e-07
1.6796e-05
2.8696e-07
1.68035e-05
2.75365e-07
1.68051e-05
2.42365e-07
1.68091e-05
2.1586e-07
1.6817e-05
2.09135e-07
1.68241e-05
1.97069e-07
1.68279e-05
1.81863e-07
1.68304e-05
1.60397e-07
1.68338e-05
1.47908e-07
1.35905e-07
1.68378e-05
1.75304e-05
2.07811e-08
1.75308e-05
8.50717e-08
1.75462e-05
1.61547e-07
1.75514e-05
2.6264e-07
1.75409e-05
1.97152e-07
1.75441e-05
2.1352e-07
1.75657e-05
2.93042e-07
1.7577e-05
3.34347e-07
1.75765e-05
2.88047e-07
1.75825e-05
2.66505e-07
1.75955e-05
2.73934e-07
1.76046e-05
2.66338e-07
1.76077e-05
2.39199e-07
1.76115e-05
2.12116e-07
1.76184e-05
2.02204e-07
1.76256e-05
1.89879e-07
1.76304e-05
1.77037e-07
1.76335e-05
1.57307e-07
1.76369e-05
1.44494e-07
1.31878e-07
1.7641e-05
1.83688e-05
2.03047e-08
1.83666e-05
8.72952e-08
1.83804e-05
1.47719e-07
1.83889e-05
2.54176e-07
1.8381e-05
2.05041e-07
1.83814e-05
2.1311e-07
1.84004e-05
2.74055e-07
1.84145e-05
3.2025e-07
1.84165e-05
2.86034e-07
1.84217e-05
2.61326e-07
1.84335e-05
2.62153e-07
1.84435e-05
2.56316e-07
1.84481e-05
2.34577e-07
1.84521e-05
2.08151e-07
1.84584e-05
1.95927e-07
1.84654e-05
1.82865e-07
1.84709e-05
1.71469e-07
1.84748e-05
1.53484e-07
1.84783e-05
1.40977e-07
1.27826e-07
1.84823e-05
1.92472e-05
1.94522e-08
1.92447e-05
8.9846e-08
1.92558e-05
1.36618e-07
1.92662e-05
2.43784e-07
1.92611e-05
2.10106e-07
1.92601e-05
2.14147e-07
1.9276e-05
2.58136e-07
1.92915e-05
3.0475e-07
1.92961e-05
2.81413e-07
1.93011e-05
2.56329e-07
1.93117e-05
2.51584e-07
1.93222e-05
2.4577e-07
1.93282e-05
2.28577e-07
1.93326e-05
2.0376e-07
1.93386e-05
1.89971e-07
1.93454e-05
1.76058e-07
1.93513e-05
1.65565e-07
1.93559e-05
1.48871e-07
1.93598e-05
1.37122e-07
1.23803e-07
1.93638e-05
2.01675e-05
1.8357e-08