/*--------------------------------*- C++ -*----------------------------------*\
| =========                 |                                                 |
| \\      /  F ield         | OpenFOAM: The Open Source CFD Toolbox           |
|  \\    /   O peration     | Version:  2506                                  |
|   \\  /    A nd           | Website:  www.openfoam.com                      |
|    \\/     M anipulation  |                                                 |
\*---------------------------------------------------------------------------*/
FoamFile
{
    version     2.0;
    format      ascii;
    arch        "LSB;label=32;scalar=64";
    class       volScalarField;
    location    "3.55";
    object      p;
}
// * * * * * * * * * * * * * * * * * * * * * * * * * * * * * * * * * * * * * //

dimensions      [0 2 -2 0 0 0 0];

internalField   nonuniform List<scalar> 
9600
(
7.52405e-11
-0.000456418
5.36046e-05
-0.000573166
-0.000677632
-0.00125425
0.00142904
0.000997368
0.00124663
0.000941127
0.000956187
-0.00211213
-0.00165143
-0.000203406
-0.000833499
0.000759534
0.0011996
0.00370769
0.00541258
0.0119257
-3.37732e-07
-0.000455409
5.18266e-05
-0.000580669
-0.000673825
-0.00124019
0.00137745
0.00098505
0.00124917
0.000900229
0.000955301
-0.00212385
-0.00164648
-0.000204748
-0.000821897
0.000761878
0.00122039
0.00368275
0.00543963
0.0112793
-7.72238e-07
-0.000454627
4.70861e-05
-0.000588237
-0.000668037
-0.00122719
0.00133051
0.000969848
0.00124274
0.000851669
0.000948423
-0.00212612
-0.00164099
-0.000197969
-0.000800027
0.000755407
0.00124709
0.00363643
0.00544676
0.0106869
-1.2834e-06
-0.000454704
4.17432e-05
-0.000593761
-0.000662707
-0.00121618
0.00128765
0.000952416
0.00123152
0.000797146
0.000936432
-0.00211279
-0.00163369
-0.000184942
-0.000772787
0.000742286
0.00127462
0.00357717
0.00542868
0.0101352
-1.92548e-06
-0.000455578
3.67613e-05
-0.000597111
-0.000657838
-0.00120567
0.00124793
0.00093217
0.00122138
0.000737611
0.000925828
-0.00208468
-0.00162343
-0.000169314
-0.000741889
0.000725293
0.00129929
0.00351199
0.00538616
0.009601
-2.71873e-06
-0.000457183
3.25169e-05
-0.000597944
-0.000652954
-0.00119436
0.00121118
0.000908885
0.00121333
0.000675976
0.000918849
-0.00204425
-0.00160976
-0.000152891
-0.000708154
0.000704765
0.00132115
0.00344638
0.0053184
0.00908202
-3.6688e-06
-0.00045942
2.9401e-05
-0.000596293
-0.000647772
-0.00118125
0.00117699
0.000882692
0.00120752
0.000614505
0.000915265
-0.0019943
-0.00159278
-0.000136305
-0.000672596
0.000682525
0.00134008
0.0033823
0.00522537
0.00858369
-4.76342e-06
-0.000462143
2.74835e-05
-0.000592569
-0.00064207
-0.00116575
0.00114507
0.000854376
0.00120425
0.000554569
0.000914243
-0.00193721
-0.00157264
-0.000119693
-0.000636518
0.000661144
0.0013535
0.0033193
0.00511136
0.00810687
-5.98431e-06
-0.000465215
2.65329e-05
-0.00058731
-0.000635701
-0.00114767
0.00111504
0.000825003
0.0012032
0.000496354
0.00091477
-0.00187487
-0.00154977
-0.000102831
-0.000601224
0.000642176
0.00135861
0.00325775
0.00498084
0.00764428
-7.34252e-06
-0.000468524
2.6249e-05
-0.000581017
-0.00062868
-0.00112724
0.00108631
0.000795428
0.00120362
0.000439457
0.000915839
-0.0018088
-0.00152495
-8.50537e-05
-0.000568233
0.000626283
0.00135413
0.00319783
0.00483576
0.00718866
-8.80597e-06
-0.000471955
2.63723e-05
-0.000574093
-0.000621077
-0.00110504
0.00105821
0.000766088
0.00120456
0.000386848
0.000916527
-0.00174028
-0.00149903
-6.54816e-05
-0.000539302
0.000614142
0.00134008
0.00313686
0.0046778
0.00673669
-1.03994e-05
-0.000475404
2.67162e-05
-0.000566843
-0.000612913
-0.00108168
0.00103
0.000736963
0.00120494
0.000331203
0.000915946
-0.00167019
-0.00147304
-4.33034e-05
-0.000515709
0.000605997
0.00131697
0.0030706
0.0045108
0.00628704
-1.2129e-05
-0.000478796
2.71735e-05
-0.000559486
-0.000604219
-0.00105763
0.00100105
0.000707825
0.00120383
0.000276933
0.000913176
-0.00159896
-0.00144816
-1.79369e-05
-0.000497929
0.000601134
0.00128542
0.0029952
0.00434008
0.00583919
-1.40011e-05
-0.000482077
2.76796e-05
-0.00055215
-0.000595035
-0.00103326
0.000971043
0.000678548
0.00120049
0.000224567
0.000907326
-0.00152672
-0.00142548
1.10493e-05
-0.00048626
0.000598201
0.00124703
0.00290616
0.00416976
0.00539263
-1.60194e-05
-0.000485222
2.81923e-05
-0.000544905
-0.000585403
-0.00100878
0.000939807
0.000649185
0.00119426
0.000174517
0.000897634
-0.00145353
-0.00140578
4.40918e-05
-0.00048111
0.000595222
0.00120496
0.00279785
0.00400117
0.0049499
-1.81848e-05
-0.000488224
2.86869e-05
-0.000537792
-0.000575379
-0.000984257
0.000907218
0.000619877
0.0011846
0.000127288
0.000883395
-0.00137919
-0.00138983
8.14286e-05
-0.000481929
0.000588747
0.00116316
0.0026664
0.00383265
0.00451716
-2.04952e-05
-0.000491092
2.91428e-05
-0.000530838
-0.000565035
-0.000959698
0.000873144
0.000590777
0.00117103
8.34301e-05
0.000863958
-0.00130326
-0.00137845
0.000122695
-0.000486775
0.000574172
0.00112518
0.00251197
0.00366043
0.00409492
-2.29458e-05
-0.000493843
2.95405e-05
-0.000524055
-0.000554461
-0.000935051
0.000837435
0.000562021
0.00115317
4.34191e-05
0.000838844
-0.00122545
-0.00137197
0.000166842
-0.000493297
0.000547174
0.00109343
0.00233624
0.00347962
0.00366218
-2.55274e-05
-0.000496502
2.98657e-05
-0.000517434
-0.000543779
-0.000910238
0.000799927
0.000533739
0.00113061
7.73864e-06
0.000807749
-0.00114578
-0.00137014
0.000212049
-0.00049847
0.000503686
0.00106819
0.00214299
0.00328586
0.00329743
-2.82246e-05
-0.000499095
3.01069e-05
-0.000510947
-0.000533128
-0.000885151
0.000760407
0.000506103
0.00110295
-2.3236e-05
0.000770508
-0.00106457
-0.00137222
0.000255816
-0.00049903
0.000440823
0.0010475
0.00193876
0.00307346
0.00297692
-3.10212e-05
-0.000501643
3.02479e-05
-0.000504554
-0.000522671
-0.000859648
0.000718612
0.000479281
0.00106983
-4.94846e-05
0.0007272
-0.000982285
-0.00137715
0.00029529
-0.000492372
0.000357488
0.00102821
0.0017303
0.00283635
0.00269405
-3.39003e-05
-0.00050416
3.02565e-05
-0.000498191
-0.000512604
-0.000833569
0.00067428
0.000453384
0.001031
-7.10678e-05
0.0006784
-0.000900141
-0.00138378
0.000327723
-0.000476497
0.000253895
0.00100493
0.00152549
0.00257237
0.00243905
-3.6847e-05
-0.000506649
3.00895e-05
-0.000491763
-0.000503172
-0.000806746
0.000626863
0.000428448
0.000986399
-8.81204e-05
0.000625009
-0.000819971
-0.00139074
0.000350592
-0.000450581
0.000132171
0.000971142
0.00133151
0.00228289
0.00220011
-3.98501e-05
-0.000509105
2.96847e-05
-0.000485138
-0.000494649
-0.00077904
0.000576672
0.000404453
0.000936194
-0.000101494
0.000568246
-0.000743087
-0.00139695
0.000361748
-0.000414689
-4.6221e-06
0.00092107
0.00115398
0.00197146
0.00196584
-4.29077e-05
-0.000511506
2.89435e-05
-0.000478153
-0.000487298
-0.000750371
0.000523476
0.000381268
0.000880623
-0.00011234
0.000509786
-0.000670587
-0.00140181
0.000359491
-0.000369732
-0.000152519
0.000849222
0.00099652
0.00164473
0.00172526
-4.60269e-05
-0.000513789
2.77566e-05
-0.00047067
-0.00048138
-0.000720695
0.000467337
0.000358533
0.000820346
-0.000121678
0.000450936
-0.00060377
-0.00140487
0.000342379
-0.000317567
-0.000306556
0.000750648
0.000859782
0.00131175
0.00146894
-4.92215e-05
-0.000515845
2.59925e-05
-0.000462556
-0.00047715
-0.000690029
0.000408514
0.000335688
0.000756308
-0.000130884
0.00039267
-0.000543352
-0.00140609
0.000309436
-0.000260613
-0.0004618
0.000621916
0.000742451
0.00098354
0.0011886
-5.25428e-05
-0.000517519
2.3486e-05
-0.000453678
-0.00047486
-0.000658506
0.000347498
0.000311963
0.000689465
-0.000141462
0.000335871
-0.000489335
-0.00140599
0.000260179
-0.000201899
-0.000612987
0.000461085
0.000640006
0.000673152
0.000878494
-5.60732e-05
-0.000518611
2.00889e-05
-0.000443942
-0.000474722
-0.00062641
0.000284903
0.00028645
0.000621099
-0.00015447
0.000280776
-0.000441555
-0.0014052
0.000194493
-0.000144915
-0.000754723
0.000268615
0.000543272
0.000393153
0.000539916
-5.99024e-05
-0.000518939
1.56911e-05
-0.000433309
-0.000476733
-0.00059419
0.000221359
0.000258196
0.000552619
-0.00017065
0.000226723
-0.000399512
-0.00140401
0.000112047
-9.33021e-05
-0.000881685
4.81085e-05
0.000439941
0.000152178
0.000183859
-6.41302e-05
-0.000518307
1.02086e-05
-0.000421853
-0.00048077
-0.000562383
0.000157669
0.00022633
0.000485124
-0.00019078
0.000172855
-0.000362321
-0.00140236
1.2242e-05
-5.08944e-05
-0.000989701
-0.000195239
0.000319426
-4.6187e-05
-0.000170118
-6.88848e-05
-0.000516489
3.63361e-06
-0.00040981
-0.000486661
-0.000531665
9.47511e-05
0.000190263
0.000419302
-0.000215043
0.000118934
-0.000330091
-0.00139987
-0.000104042
-2.24456e-05
-0.0010767
-0.000453837
0.00017421
-0.000206739
-0.00051196
-7.4279e-05
-0.000513367
-3.89813e-06
-0.000397452
-0.000494117
-0.000502701
3.31486e-05
0.000149423
0.00035565
-0.000242975
8.16905e-05
-0.000303329
-0.00139548
-0.000235029
-1.31395e-05
-0.00114168
-0.000718237
-1.8062e-06
-0.000341965
-0.000872761
-8.03525e-05
-0.000508942
-1.20725e-05
-0.000385075
-0.000503109
-0.000475909
-2.67333e-05
0.00010336
0.000294568
-0.000274535
2.31077e-05
-0.000282796
-0.00138755
-0.000378811
-2.73539e-05
-0.00118584
-0.000978992
-0.00021026
-0.000461819
-0.00111817
-8.71143e-05
-0.000503319
-2.04718e-05
-0.00037291
-0.000513678
-0.000451749
-8.43883e-05
5.19186e-05
0.000235958
-0.000308916
-4.49207e-05
-0.000270616
-0.00137493
-0.000531956
-6.83849e-05
-0.0012125
-0.00122778
-0.00044749
-0.000579412
-0.00130541
-9.4551e-05
-0.00049686
-2.8605e-05
-0.000360984
-0.000525857
-0.000430603
-0.000139374
-5.58309e-06
0.000179087
-0.000344301
-0.000122289
-0.000269689
-0.001357
-0.000689997
-0.000138518
-0.00122609
-0.00145818
-0.000708292
-0.000706126
-0.00144602
-0.000102532
-0.000490207
-3.60727e-05
-0.000348757
-0.000540069
-0.000412754
-0.000190957
-6.98022e-05
0.000122648
-0.000378922
-0.000208171
-0.000283272
-0.00133406
-0.00084786
-0.000238387
-0.00123297
-0.00166448
-0.000986422
-0.000849495
-0.00154269
-0.000110839
-0.000483957
-4.28275e-05
-0.000334959
-0.000556548
-0.000398957
-0.000237849
-0.000140801
6.39912e-05
-0.000411956
-0.00030195
-0.000314756
-0.00130816
-0.000999809
-0.000366383
-0.00124059
-0.00184181
-0.00127489
-0.00101588
-0.00162891
-0.000119279
-0.00047868
-4.90806e-05
-0.000318312
-0.000575065
-0.000390825
-0.000278946
-0.00021776
-1.63275e-07
-0.000443378
-0.000400951
-0.000365799
-0.001283
-0.00114075
-0.00051877
-0.00125703
-0.00198802
-0.00156455
-0.00120887
-0.00171166
-0.000127543
-0.000474737
-5.57684e-05
-0.000297885
-0.000594624
-0.000390467
-0.000314522
-0.000299334
-7.20098e-05
-0.000473
-0.00050009
-0.000435627
-0.00126316
-0.00126797
-0.000690232
-0.00129028
-0.00210547
-0.0018446
-0.00142852
-0.00179978
-0.000135372
-0.000472229
-6.41729e-05
-0.000273249
-0.000613939
-0.000399872
-0.00034519
-0.000382993
-0.000153806
-0.000502273
-0.000593892
-0.000521158
-0.00125324
-0.00138179
-0.00087459
-0.00134539
-0.00219972
-0.0021063
-0.00167122
-0.00190148
-0.000142359
-0.0004713
-7.57863e-05
-0.000244072
-0.000630532
-0.000420933
-0.000373339
-0.000465234
-0.000246751
-0.000534553
-0.000677902
-0.000617318
-0.00125716
-0.0014837
-0.00106535
-0.00142424
-0.00227798
-0.00234389
-0.00192996
-0.00202401
-0.000148329
-0.000471597
-9.19058e-05
-0.000211366
-0.00064047
-0.000453174
-0.000402848
-0.000546153
-0.000352093
-0.00057289
-0.00075016
-0.000717328
-0.00127628
-0.00157502
-0.00125705
-0.00152646
-0.0023478
-0.00255461
-0.00219529
-0.00217152
-0.000153468
-0.000471765
-0.000113398
-0.000177256
-0.00064171
-0.000496044
-0.000437487
-0.000629021
-0.000467938
-0.000620307
-0.000810384
-0.00081658
-0.00130978
-0.00165869
-0.00144566
-0.00164979
-0.00241588
-0.00273793
-0.00245771
-0.00234391
-0.000157618
-0.00047098
-0.000141158
-0.000141007
-0.000634135
-0.000551331
-0.000480111
-0.000697963
-0.00058437
-0.000680868
-0.00086652
-0.000913965
-0.00135659
-0.00173864
-0.00162789
-0.001791
-0.00248839
-0.00289584
-0.00270924
-0.00253742
-0.000161109
-0.000468322
-0.000174725
-0.000115578
-0.000618059
-0.000609987
-0.000531002
-0.000756424
-0.000698436
-0.000754884
-0.000926147
-0.00100948
-0.00141521
-0.00181741
-0.00180105
-0.00194578
-0.0025706
-0.00303294
-0.00294364
-0.00274484
-0.000164393
-0.000463081
-0.000214067
-0.000102048
-0.000592047
-0.000666407
-0.000592762
-0.000812396
-0.00080667
-0.000839025
-0.000991848
-0.00110514
-0.00148426
-0.0018965
-0.00196361
-0.00210859
-0.00266464
-0.00315419
-0.00315646
-0.00295808
-0.000167847
-0.000454941
-0.000257332
-0.000100977
-0.000559767
-0.000718517
-0.000664855
-0.000866881
-0.000906464
-0.000930959
-0.00106624
-0.00120167
-0.00156095
-0.0019762
-0.00211518
-0.00227466
-0.0027704
-0.00326535
-0.00334718
-0.0031696
-0.000171908
-0.000443699
-0.00030491
-0.00011615
-0.000528144
-0.000762587
-0.000743133
-0.000925716
-0.00099896
-0.00102661
-0.00114772
-0.00129904
-0.00164426
-0.00205883
-0.00225726
-0.00244029
-0.00288658
-0.00337148
-0.00351752
-0.00337233
-0.000176672
-0.000429418
-0.000347152
-0.000148533
-0.000503335
-0.000796279
-0.000823471
-0.000990227
-0.00108535
-0.00112261
-0.00123461
-0.00139841
-0.00173481
-0.00214653
-0.00239121
-0.0026011
-0.00301035
-0.0034757
-0.00366989
-0.00356292
-0.000182211
-0.000412593
-0.00038518
-0.000198447
-0.000491117
-0.00081926
-0.000900508
-0.00106056
-0.00116948
-0.00121688
-0.00132409
-0.00149961
-0.00183122
-0.00223919
-0.00251861
-0.00275476
-0.00313876
-0.00358078
-0.00380726
-0.00373957
-0.000188617
-0.00039381
-0.000418262
-0.000264792
-0.000494983
-0.00083272
-0.000970094
-0.00113636
-0.00125473
-0.00130613
-0.00141425
-0.00160004
-0.00193095
-0.00233654
-0.0026424
-0.00290162
-0.0032685
-0.00368762
-0.00393269
-0.00390064
-0.000196351
-0.000374854
-0.000445062
-0.000341927
-0.000517158
-0.000841422
-0.00102993
-0.00121438
-0.00134289
-0.00139981
-0.00150594
-0.00169836
-0.00203145
-0.00243771
-0.00276444
-0.00304279
-0.00339705
-0.00379502
-0.00404982
-0.00404558
-0.000205705
-0.000360438
-0.000464841
-0.000419211
-0.000558117
-0.000853026
-0.00107945
-0.00129123
-0.00143456
-0.00149937
-0.0015999
-0.00179534
-0.00213014
-0.0025405
-0.00288597
-0.00317937
-0.00352297
-0.00390092
-0.00416098
-0.00417646
-0.000216806
-0.000351315
-0.000478395
-0.000492494
-0.000616487
-0.000874223
-0.00112016
-0.00136252
-0.00153292
-0.00160443
-0.00169777
-0.00189137
-0.00222565
-0.0026417
-0.0030064
-0.00331259
-0.00364647
-0.00400434
-0.00426372
-0.00429677
-0.000229137
-0.000348336
-0.000488404
-0.000558705
-0.000687591
-0.000909302
-0.00115634
-0.0014252
-0.00162596
-0.0017138
-0.0018018
-0.00198788
-0.00231822
-0.00273875
-0.00312303
-0.00344356
-0.00376903
-0.00410627
-0.0043615
-0.00440863
-0.00024244
-0.000351618
-0.000498995
-0.00061653
-0.000765291
-0.000960068
-0.00119411
-0.00147907
-0.00171179
-0.00182559
-0.00191269
-0.00208735
-0.00240834
-0.00283107
-0.00323351
-0.00357016
-0.00389069
-0.00420846
-0.00445346
-0.00451101
-0.000256649
-0.000360657
-0.000513619
-0.000666684
-0.000843699
-0.00102591
-0.00123856
-0.00152503
-0.0017884
-0.00193411
-0.00202854
-0.00219231
-0.00249785
-0.00291807
-0.00333599
-0.00368948
-0.00401047
-0.00431201
-0.00454204
-0.00460327
-0.000272153
-0.000374897
-0.000533512
-0.000710915
-0.000918589
-0.00110332
-0.00129333
-0.00156842
-0.00185532
-0.00203564
-0.00214682
-0.00230346
-0.00258986
-0.0029993
-0.00342923
-0.00380034
-0.00412585
-0.00441536
-0.00462951
-0.00468754
-0.000289379
-0.000393237
-0.000559194
-0.0007529
-0.000987953
-0.00118708
-0.00136034
-0.00161536
-0.0019123
-0.00212735
-0.00226246
-0.00241841
-0.00268659
-0.00307784
-0.0035125
-0.00390119
-0.00423403
-0.00451726
-0.00471724
-0.00476715
-0.000308861
-0.000415061
-0.000590426
-0.000796261
-0.00105178
-0.00127155
-0.00143953
-0.0016687
-0.00196142
-0.00220816
-0.00237198
-0.00253376
-0.00278716
-0.00315775
-0.00358699
-0.00398983
-0.00433329
-0.00461469
-0.00480442
-0.0048439
-0.000331414
-0.000439998
-0.000626546
-0.00084287
-0.00111128
-0.00135309
-0.00152661
-0.00173128
-0.00201182
-0.00227781
-0.00247176
-0.00264675
-0.00288974
-0.0032394
-0.0036566
-0.00406588
-0.00442012
-0.00470464
-0.00488882
-0.00491852
-0.000357559
-0.000468203
-0.000666188
-0.000893293
-0.00116922
-0.00143013
-0.00161625
-0.00180396
-0.0020644
-0.00233799
-0.00255931
-0.0027531
-0.00299234
-0.00332143
-0.00372353
-0.00413243
-0.0044944
-0.00478434
-0.00496751
-0.00499056
-0.000387601
-0.000499915
-0.000708996
-0.000947656
-0.00122687
-0.00150244
-0.00170492
-0.00188472
-0.00212169
-0.00239351
-0.002635
-0.00284834
-0.00309096
-0.00340329
-0.00378753
-0.00419062
-0.0045556
-0.00485114
-0.00503725
-0.00505745
-0.000421856
-0.000535546
-0.000754259
-0.0010056
-0.00128789
-0.00157118
-0.00178988
-0.00196911
-0.00218503
-0.00244622
-0.00270046
-0.0029307
-0.00317969
-0.00348335
-0.00384858
-0.00424248
-0.00460672
-0.00490466
-0.00509494
-0.00511568
-0.000460691
-0.000575356
-0.000802035
-0.00106625
-0.00135226
-0.00163862
-0.0018704
-0.00205341
-0.00225369
-0.00249908
-0.00275613
-0.00299917
-0.00325439
-0.00355462
-0.0039057
-0.00428604
-0.00464818
-0.00494688
-0.00514096
-0.00516486
-0.000504516
-0.00062008
-0.000852625
-0.00112888
-0.00141973
-0.00170674
-0.00194705
-0.00213496
-0.00232449
-0.00255358
-0.00280455
-0.00305475
-0.00331468
-0.00361022
-0.00395228
-0.00431943
-0.00467614
-0.00497571
-0.00517337
-0.00520359
-0.000552746
-0.000669243
-0.000906815
-0.00119353
-0.00148979
-0.00177631
-0.0020215
-0.0022139
-0.00239448
-0.00260775
-0.00284798
-0.00309722
-0.00336019
-0.00365022
-0.00398151
-0.0043377
-0.00468762
-0.00498733
-0.00518805
-0.00522594
-0.000605971
-0.000723834
-0.000965135
-0.00126013
-0.00156198
-0.00184757
-0.00209437
-0.00229032
-0.00246385
-0.00266032
-0.00288606
-0.00312595
-0.00338653
-0.00367266
-0.00399078
-0.00433412
-0.00467862
-0.00498024
-0.00518693
-0.00523324
-0.000664588
-0.000784208
-0.00102781
-0.00132952
-0.00163622
-0.00192118
-0.00216721
-0.00236386
-0.00253158
-0.00271164
-0.00291853
-0.00314175
-0.0033908
-0.00367237
-0.0039761
-0.00429823
-0.00462331
-0.00492216
-0.00513948
-0.00519784
-0.000728366
-0.000847205
-0.00109495
-0.00140256
-0.00171303
-0.0019975
-0.0022416
-0.00243652
-0.00259757
-0.00276317
-0.00294742
-0.0031453
-0.00337078
-0.00363649
-0.0039412
-0.00426396
-0.00458273
-0.00486839
-0.00508311
-0.00515502
-0.000798696
-0.00091851
-0.00116665
-0.00147619
-0.00179148
-0.00207687
-0.00231773
-0.00250935
-0.00266302
-0.00281582
-0.00297997
-0.00314651
-0.00332499
-0.00352564
-0.00376455
-0.00404328
-0.00435458
-0.00466232
-0.00489851
-0.00499903
-0.000876155
-0.000996128
-0.00124254
-0.0015533
-0.00187284
-0.00215978
-0.00239873
-0.00258503
-0.00272731
-0.00286568
-0.00301507
-0.00316805
-0.00333839
-0.00352158
-0.00371922
-0.00394452
-0.00419666
-0.00445685
-0.00467013
-0.00476775
-0.000956496
-0.00107552
-0.00132435
-0.00163913
-0.00195982
-0.00224396
-0.00248433
-0.00267632
-0.00281568
-0.002918
-0.00299128
-0.00303039
-0.00307468
-0.00315347
-0.00328093
-0.00346891
-0.00372442
-0.00403687
-0.00436847
-0.00462728
-0.00104509
-0.00116446
-0.00141307
-0.00172439
-0.00203892
-0.00232034
-0.00256582
-0.00277436
-0.00295928
-0.00315423
-0.00334351
-0.00343856
-0.00336574
-0.00316785
-0.00297303
-0.00286654
-0.0028156
-0.00277496
-0.00273158
-0.00272719
-0.00114734
-0.00126804
-0.00150947
-0.00180722
-0.00210487
-0.00237592
-0.00262099
-0.00283699
-0.00299194
-0.00303656
-0.0029482
-0.00280033
-0.00270483
-0.00270309
-0.00276442
-0.00283525
-0.00290661
-0.00297252
-0.00303175
-0.00313344
-0.00126103
-0.00136795
-0.00161365
-0.00191786
-0.00222586
-0.00249971
-0.00269097
-0.0027604
-0.00275882
-0.00276285
-0.00280861
-0.0028845
-0.00296767
-0.00299239
-0.00294742
-0.00283804
-0.00265984
-0.00245251
-0.00228484
-0.00225032
-0.00141489
-0.00149497
-0.00166262
-0.001869
-0.00207549
-0.00225395
-0.00239052
-0.00250529
-0.00259989
-0.00267945
-0.00275582
-0.00279609
-0.00282712
-0.00288999
-0.00299275
-0.00318777
-0.0034847
-0.00386733
-0.00427403
-0.00461868
-0.00160154
-0.00169047
-0.00176309
-0.00185999
-0.00201269
-0.00221477
-0.00241646
-0.00259399
-0.00271886
-0.00276947
-0.0028184
-0.00286395
-0.00287169
-0.00286664
-0.00282573
-0.00273319
-0.00260867
-0.00247445
-0.00238403
-0.00240527
-0.00171592
-0.00179177
-0.00182478
-0.00186694
-0.00195756
-0.00208006
-0.00219835
-0.00231728
-0.00244562
-0.00256335
-0.00267343
-0.00277597
-0.00281707
-0.00282705
-0.00283067
-0.00283958
-0.00285709
-0.00288671
-0.00296807
-0.00315656
0.0141066
0.00680119
-0.00180198
-0.00797758
-0.00974133
-0.00923401
-0.00836486
-0.00745859
-0.00659187
-0.00592839
-0.00552321
-0.00539391
-0.00555495
-0.00581702
-0.00590038
-0.0057932
-0.00568888
-0.00568727
-0.00580087
-0.00599383
-0.00612985
-0.00615381
-0.00618486
-0.00629093
-0.0064116
-0.0064805
-0.00648571
-0.00647657
-0.00651748
-0.00659717
-0.00664862
-0.0066543
-0.00667242
-0.00674825
-0.00684733
-0.00692029
-0.00697849
-0.00704982
-0.00711299
-0.00714343
-0.00716487
-0.00719434
-0.0072123
-0.00721999
-0.00726061
-0.0073462
-0.00742894
-0.00749302
-0.00756538
-0.00764161
-0.0076801
-0.00768547
-0.0077156
-0.00776683
-0.00780529
-0.00787132
-0.007963
-0.00802748
-0.00807838
-0.00813549
-0.00818062
-0.00821883
-0.00826824
-0.0083266
-0.00838694
-0.00844743
-0.0085135
-0.00857839
-0.00863838
-0.00869496
-0.00875347
-0.00881141
-0.00887446
-0.00893518
-0.00899746
-0.00905964
-0.0091278
-0.00919211
-0.00925576
-0.00931434
-0.00937814
-0.00944159
-0.00950878
-0.00956964
-0.00963231
-0.00969134
-0.00975471
-0.00981714
-0.00987899
-0.00994329
-0.0100028
-0.0100721
-0.0101361
-0.0102135
-0.0102834
-0.0103761
-0.0104714
-0.0105587
-0.0108354
-0.011019
0.0132946
0.00663859
-0.00171118
-0.00782619
-0.00966051
-0.00920016
-0.00834649
-0.00744626
-0.00658204
-0.0059198
-0.00551516
-0.00538599
-0.00554774
-0.00581119
-0.00589567
-0.00578899
-0.00568493
-0.00568354
-0.00579741
-0.00599086
-0.00612736
-0.00615146
-0.00618253
-0.00628876
-0.00640966
-0.00647878
-0.00648412
-0.00647503
-0.006516
-0.00659586
-0.00664747
-0.00665321
-0.00667134
-0.00674723
-0.00684641
-0.00691945
-0.00697768
-0.00704905
-0.00711228
-0.00714276
-0.00716422
-0.00719373
-0.00721173
-0.00721942
-0.00726003
-0.00734566
-0.00742844
-0.00749253
-0.00756491
-0.00764117
-0.0076797
-0.00768507
-0.00771519
-0.00776646
-0.00780493
-0.00787095
-0.00796266
-0.00802717
-0.00807807
-0.00813519
-0.00818034
-0.00821855
-0.00826797
-0.00832635
-0.00838669
-0.0084472
-0.00851327
-0.00857817
-0.00863817
-0.00869476
-0.00875327
-0.00881122
-0.00887428
-0.008935
-0.00899729
-0.00905948
-0.00912765
-0.00919196
-0.00925562
-0.0093142
-0.00937801
-0.00944146
-0.00950866
-0.00956952
-0.0096322
-0.00969123
-0.0097546
-0.00981704
-0.00987889
-0.0099432
-0.0100027
-0.010072
-0.010136
-0.0102134
-0.0102833
-0.010376
-0.0104713
-0.0105586
-0.0108354
-0.0110191
0.0125206
0.00642941
-0.00155425
-0.00755343
-0.00951509
-0.00914587
-0.00831894
-0.00742795
-0.00656885
-0.00591019
-0.00550809
-0.00538
-0.00554177
-0.00580526
-0.0058902
-0.00578426
-0.00568098
-0.00568005
-0.00579414
-0.005988
-0.00612497
-0.00614927
-0.00618046
-0.00628687
-0.00640794
-0.0064772
-0.00648264
-0.00647359
-0.00651465
-0.00659468
-0.00664642
-0.0066522
-0.00667034
-0.00674631
-0.0068456
-0.0069187
-0.00697696
-0.00704838
-0.00711168
-0.00714218
-0.00716366
-0.00719321
-0.00721123
-0.0072189
-0.00725951
-0.00734519
-0.00742801
-0.00749211
-0.0075645
-0.00764081
-0.00767937
-0.00768471
-0.00771483
-0.00776613
-0.0078046
-0.00787062
-0.00796238
-0.0080269
-0.0080778
-0.00813494
-0.0081801
-0.00821831
-0.00826773
-0.00832612
-0.00838648
-0.00844699
-0.00851307
-0.00857798
-0.00863799
-0.00869459
-0.00875311
-0.00881106
-0.00887413
-0.00893486
-0.00899715
-0.00905934
-0.00912751
-0.00919183
-0.00925549
-0.00931408
-0.00937789
-0.00944134
-0.00950855
-0.00956941
-0.00963209
-0.00969113
-0.0097545
-0.00981695
-0.0098788
-0.00994311
-0.0100026
-0.010072
-0.0101359
-0.0102134
-0.0102833
-0.0103759
-0.0104712
-0.0105585
-0.0108353
-0.0110193
0.0117753
0.00620884
-0.0013511
-0.00719363
-0.00929862
-0.00905511
-0.00826974
-0.00739582
-0.00654773
-0.00589677
-0.00550054
-0.00537554
-0.00553678
-0.00579819
-0.00588243
-0.00577787
-0.00567648
-0.00567637
-0.00579023
-0.00598397
-0.00612148
-0.00614655
-0.00617831
-0.00628489
-0.00640592
-0.00647526
-0.00648092
-0.00647201
-0.00651315
-0.00659326
-0.00664513
-0.006651
-0.00666921
-0.00674528
-0.0068447
-0.00691788
-0.00697619
-0.00704768
-0.00711103
-0.00714155
-0.00716306
-0.00719266
-0.00721069
-0.00721833
-0.00725896
-0.00734471
-0.00742758
-0.00749167
-0.00756409
-0.00764045
-0.00767903
-0.00768434
-0.00771445
-0.0077658
-0.00780426
-0.00787028
-0.0079621
-0.00802664
-0.00807753
-0.00813469
-0.00817986
-0.00821806
-0.00826749
-0.0083259
-0.00838626
-0.00844678
-0.00851287
-0.0085778
-0.00863781
-0.00869441
-0.00875294
-0.00881089
-0.00887397
-0.00893471
-0.008997
-0.00905919
-0.00912738
-0.0091917
-0.00925537
-0.00931396
-0.00937777
-0.00944123
-0.00950844
-0.00956931
-0.00963199
-0.00969103
-0.00975441
-0.00981686
-0.00987871
-0.00994303
-0.0100025
-0.0100719
-0.0101358
-0.0102133
-0.0102832
-0.0103758
-0.0104712
-0.0105584
-0.0108352
-0.0110196
0.0110418
0.0059805
-0.00112826
-0.00680081
-0.00904655
-0.00894233
-0.00820556
-0.00735202
-0.00651865
-0.0058787
-0.00549152
-0.00537212
-0.00553251
-0.00578929
-0.00587134
-0.00576912
-0.0056715
-0.00567306
-0.00578586
-0.00597806
-0.00611573
-0.0061425
-0.00617571
-0.00628251
-0.00640313
-0.00647249
-0.0064787
-0.00647024
-0.00651139
-0.00659136
-0.00664328
-0.00664939
-0.00666777
-0.00674394
-0.00684349
-0.00691683
-0.00697528
-0.00704685
-0.00711024
-0.0071408
-0.00716236
-0.00719202
-0.00721004
-0.00721768
-0.00725834
-0.00734417
-0.00742709
-0.00749119
-0.00756363
-0.00764005
-0.00767866
-0.00768393
-0.00771403
-0.00776541
-0.00780387
-0.00786991
-0.00796179
-0.00802634
-0.00807723
-0.00813441
-0.00817959
-0.00821778
-0.00826722
-0.00832564
-0.00838602
-0.00844655
-0.00851265
-0.00857759
-0.00863761
-0.00869422
-0.00875275
-0.00881071
-0.0088738
-0.00893454
-0.00899684
-0.00905904
-0.00912723
-0.00919157
-0.00925524
-0.00931383
-0.00937764
-0.00944111
-0.00950832
-0.0095692
-0.00963188
-0.00969093
-0.0097543
-0.00981676
-0.00987862
-0.00994294
-0.0100025
-0.0100718
-0.0101357
-0.0102132
-0.0102831
-0.0103758
-0.0104711
-0.0105583
-0.010835
-0.01102
0.010328
0.00574025
-0.000913117
-0.00640263
-0.00877764
-0.00881968
-0.0081357
-0.0073023
-0.00648433
-0.00585707
-0.00548111
-0.00536909
-0.00552831
-0.00577843
-0.00585716
-0.00575822
-0.00566629
-0.00567066
-0.00578171
-0.00597054
-0.00610749
-0.00613666
-0.00617229
-0.00627937
-0.00639913
-0.00646842
-0.00647572
-0.00646826
-0.00650942
-0.0065889
-0.00664077
-0.00664729
-0.00666594
-0.00674209
-0.00684172
-0.00691537
-0.00697412
-0.00704581
-0.00710924
-0.00713989
-0.00716155
-0.00719124
-0.00720923
-0.00721688
-0.00725762
-0.00734354
-0.00742651
-0.00749065
-0.00756313
-0.00763958
-0.00767821
-0.00768346
-0.00771354
-0.00776496
-0.00780344
-0.00786951
-0.00796144
-0.00802601
-0.0080769
-0.00813411
-0.00817928
-0.00821747
-0.00826693
-0.00832536
-0.00838575
-0.00844629
-0.0085124
-0.00857736
-0.00863739
-0.008694
-0.00875254
-0.00881051
-0.00887361
-0.00893436
-0.00899666
-0.00905887
-0.00912707
-0.00919141
-0.00925509
-0.00931369
-0.0093775
-0.00944098
-0.0095082
-0.00956908
-0.00963177
-0.00969081
-0.00975419
-0.00981666
-0.00987851
-0.00994284
-0.0100024
-0.0100717
-0.0101356
-0.0102131
-0.010283
-0.0103757
-0.010471
-0.0105581
-0.0108347
-0.0110204
0.00964229
0.0054794
-0.000723365
-0.00600696
-0.00849276
-0.0086877
-0.00806253
-0.00724898
-0.00644605
-0.00583244
-0.0054692
-0.00536571
-0.00552367
-0.00576605
-0.00584079
-0.00574579
-0.005661
-0.0056693
-0.0057783
-0.00596225
-0.00609742
-0.00612929
-0.0061679
-0.00627516
-0.00639359
-0.00646274
-0.00647172
-0.00646595
-0.0065072
-0.00658587
-0.00663761
-0.00664481
-0.0066638
-0.00673967
-0.00683918
-0.00691328
-0.00697254
-0.00704439
-0.00710791
-0.00713878
-0.00716064
-0.0071903
-0.00720821
-0.0072159
-0.00725674
-0.00734273
-0.00742579
-0.00749003
-0.00756256
-0.00763903
-0.00767768
-0.00768292
-0.00771298
-0.00776442
-0.00780293
-0.00786905
-0.00796104
-0.00802562
-0.00807653
-0.00813376
-0.00817893
-0.00821712
-0.00826659
-0.00832504
-0.00838544
-0.00844599
-0.00851213
-0.0085771
-0.00863714
-0.00869375
-0.0087523
-0.00881028
-0.00887339
-0.00893416
-0.00899646
-0.00905868
-0.00912689
-0.00919124
-0.00925493
-0.00931353
-0.00937735
-0.00944083
-0.00950806
-0.00956895
-0.00963164
-0.00969069
-0.00975407
-0.00981654
-0.00987839
-0.00994273
-0.0100022
-0.0100716
-0.0101355
-0.010213
-0.0102829
-0.0103755
-0.0104709
-0.0105579
-0.0108343
-0.0110209
0.00898516
0.00519176
-0.000563482
-0.00561035
-0.00818618
-0.0085433
-0.00798638
-0.00719338
-0.00640464
-0.00580503
-0.00545546
-0.00536146
-0.00551852
-0.00575275
-0.0058231
-0.00573229
-0.00565547
-0.00566851
-0.00577555
-0.00595387
-0.00608659
-0.0061211
-0.00616277
-0.00626988
-0.00638647
-0.00645543
-0.00646661
-0.00646312
-0.00650457
-0.00658222
-0.00663391
-0.00664215
-0.00666161
-0.00673682
-0.00683586
-0.00691042
-0.00697035
-0.00704241
-0.00710605
-0.00713738
-0.00715962
-0.00718925
-0.00720702
-0.00721476
-0.00725568
-0.00734165
-0.00742481
-0.00748925
-0.00756188
-0.00763837
-0.00767707
-0.00768233
-0.00771231
-0.00776373
-0.00780232
-0.00786851
-0.00796055
-0.00802517
-0.00807612
-0.00813337
-0.00817852
-0.00821671
-0.0082662
-0.00832467
-0.00838509
-0.00844566
-0.00851181
-0.0085768
-0.00863685
-0.00869347
-0.00875202
-0.00881001
-0.00887314
-0.00893392
-0.00899623
-0.00905846
-0.00912668
-0.00919105
-0.00925474
-0.00931335
-0.00937718
-0.00944066
-0.0095079
-0.0095688
-0.00963149
-0.00969055
-0.00975393
-0.00981641
-0.00987827
-0.00994261
-0.0100021
-0.0100715
-0.0101354
-0.0102129
-0.0102828
-0.0103754
-0.0104708
-0.0105576
-0.0108338
-0.0110213
0.0083545
0.00488414
-0.000428209
-0.00521005
-0.00785639
-0.00838586
-0.00790853
-0.00713721
-0.00636097
-0.00577484
-0.00543957
-0.00535613
-0.00551294
-0.00573892
-0.00580452
-0.00571793
-0.00564948
-0.00566777
-0.00577308
-0.00594558
-0.00607556
-0.00611264
-0.00615727
-0.00626379