/*--------------------------------*- C++ -*----------------------------------*\
| =========                 |                                                 |
| \\      /  F ield         | OpenFOAM: The Open Source CFD Toolbox           |
|  \\    /   O peration     | Version:  2506                                  |
|   \\  /    A nd           | Website:  www.openfoam.com                      |
|    \\/     M anipulation  |                                                 |
\*---------------------------------------------------------------------------*/
FoamFile
{
    version     2.0;
    format      ascii;
    arch        "LSB;label=32;scalar=64";
    class       volVectorField;
    location    "3.55";
    object      U;
}
// * * * * * * * * * * * * * * * * * * * * * * * * * * * * * * * * * * * * * //

dimensions      [0 1 -1 0 0 0 0];

internalField   nonuniform List<vector> 
9600
(
(0.894121 -0.000317814 0)
(1.09351 -0.00109084 0)
(0.917661 0.00708491 0)
(1.04839 -0.00507957 0)
(0.884228 -0.00731025 0)
(1.10576 -0.00862114 0)
(0.994496 -6.08054e-05 0)
(1.05575 0.00352215 0)
(0.956186 0.0254056 0)
(1.04529 -0.00394939 0)
(0.865188 0.0140296 0)
(1.06359 -0.0152329 0)
(0.824802 -0.0138688 0)
(1.09093 -0.0183375 0)
(0.819182 -0.0234424 0)
(1.1203 -0.0162107 0)
(0.859345 -0.0213339 0)
(1.12672 -0.0112924 0)
(0.872969 -0.00922571 0)
(1.13235 0.000613441 0)
(0.902753 -0.000292165 0)
(1.0845 -0.00114172 0)
(0.92581 0.00727878 0)
(1.037 -0.00463015 0)
(0.896477 -0.00802374 0)
(1.09146 -0.00966225 0)
(0.999769 0.000353636 0)
(1.04792 0.00408002 0)
(0.962898 0.0251761 0)
(1.03016 -0.00233872 0)
(0.891973 0.0133569 0)
(1.02945 -0.0141444 0)
(0.882033 -0.0147498 0)
(1.03699 -0.0180187 0)
(0.895324 -0.0242353 0)
(1.05189 -0.0174264 0)
(0.944177 -0.0211782 0)
(1.04305 -0.0123678 0)
(0.978709 -0.00835402 0)
(1.01504 1.85858e-05 0)
(0.918774 -0.000255917 0)
(1.06798 -0.00119906 0)
(0.94036 0.00757683 0)
(1.02206 -0.00432808 0)
(0.916944 -0.00865891 0)
(1.06833 -0.0105434 0)
(1.00973 0.000748125 0)
(1.03465 0.00464479 0)
(0.972153 0.0253388 0)
(1.01655 -0.00137667 0)
(0.925024 0.0131422 0)
(1.01044 -0.0140052 0)
(0.934247 -0.0149559 0)
(1.00212 -0.0184193 0)
(0.953026 -0.0243434 0)
(1.00556 -0.0185247 0)
(0.988883 -0.0208409 0)
(1.00417 -0.0132895 0)
(1.00261 -0.00787515 0)
(1.00042 0.000326206 0)
(0.938916 -0.000205641 0)
(1.04801 -0.00126149 0)
(0.957158 0.00784373 0)
(1.00888 -0.00410682 0)
(0.939591 -0.0091048 0)
(1.04329 -0.0113207 0)
(1.01895 0.00102526 0)
(1.02263 0.00518425 0)
(0.980117 0.025534 0)
(1.00902 -0.000753922 0)
(0.953704 0.0130665 0)
(1.00372 -0.0139931 0)
(0.965955 -0.0147817 0)
(0.988949 -0.0188084 0)
(0.977615 -0.0241715 0)
(0.989939 -0.0193607 0)
(0.99744 -0.0209142 0)
(0.999577 -0.0135636 0)
(1.0006 -0.00779476 0)
(1.00378 0.000854941 0)
(0.959054 -0.000145854 0)
(1.02928 -0.001321 0)
(0.972391 0.008063 0)
(1.00078 -0.00392227 0)
(0.959096 -0.00941462 0)
(1.02218 -0.0120287 0)
(1.02283 0.00113946 0)
(1.01536 0.00571835 0)
(0.986647 0.0256176 0)
(1.00774 -0.000359534 0)
(0.97428 0.0129436 0)
(1.00555 -0.0139556 0)
(0.983106 -0.0145571 0)
(0.98824 -0.0190317 0)
(0.985578 -0.0239843 0)
(0.987501 -0.01995 0)
(0.99542 -0.0210304 0)
(0.999119 -0.0137591 0)
(0.999543 -0.00776231 0)
(1.00251 0.00120378 0)
(0.9758 -8.81253e-05 0)
(1.01504 -0.00136162 0)
(0.984053 0.00821719 0)
(0.998236 -0.00377317 0)
(0.973538 -0.00959675 0)
(1.00728 -0.012611 0)
(1.0207 0.00110836 0)
(1.01162 0.00620116 0)
(0.993022 0.0256206 0)
(1.01019 -0.000110985 0)
(0.988554 0.0127658 0)
(1.01009 -0.0138383 0)
(0.993005 -0.0143025 0)
(0.99097 -0.0190505 0)
(0.988577 -0.0237662 0)
(0.98723 -0.0203108 0)
(0.992523 -0.0210957 0)
(0.995919 -0.014084 0)
(0.998232 -0.00778087 0)
(0.99971 0.00148206 0)
(0.98756 -4.16892e-05 0)
(1.00611 -0.0013793 0)
(0.992009 0.0082881 0)
(0.999435 -0.00365039 0)
(0.983596 -0.00965066 0)
(0.998011 -0.0130309 0)
(1.0146 0.000971574 0)
(1.00862 0.00655901 0)
(0.999315 0.0255326 0)
(1.01358 5.79842e-05 0)
(0.998759 0.0125533 0)
(1.0145 -0.0136456 0)
(0.999569 -0.0139978 0)
(0.994094 -0.0189386 0)
(0.990655 -0.0234723 0)
(0.987033 -0.0204949 0)
(0.989996 -0.0211631 0)
(0.991814 -0.0143724 0)
(0.995019 -0.00784535 0)
(0.996471 0.00167978 0)
(0.994573 -9.46411e-06 0)
(1.00138 -0.00138264 0)
(0.997118 0.00828083 0)
(1.00204 -0.00354576 0)
(0.990627 -0.00959373 0)
(0.992803 -0.0132871 0)
(1.00706 0.000774272 0)
(1.00475 0.00674248 0)
(1.00452 0.0253324 0)
(1.01607 0.000184795 0)
(1.0061 0.0123075 0)
(1.01777 -0.0133733 0)
(1.00421 -0.0136746 0)
(0.996975 -0.0187258 0)
(0.992584 -0.0230972 0)
(0.98715 -0.0205372 0)
(0.987899 -0.0211932 0)
(0.988068 -0.0145031 0)
(0.99093 -0.00796749 0)
(0.992782 0.00174729 0)
(0.998147 1.18291e-05 0)
(0.999154 -0.00138308 0)
(1.00032 0.0082151 0)
(1.00445 -0.00346019 0)
(0.995591 -0.00945281 0)
(0.990266 -0.013389 0)
(0.999935 0.000565889 0)
(1.00002 0.00675357 0)
(1.00784 0.0250194 0)
(1.01711 0.000283805 0)
(1.01109 0.0120251 0)
(1.01979 -0.0130325 0)
(1.00745 -0.0133669 0)
(0.999432 -0.0184154 0)
(0.9944 -0.0226883 0)
(0.987692 -0.0204329 0)
(0.986399 -0.021133 0)
(0.984982 -0.0145078 0)
(0.98702 -0.00814698 0)
(0.989081 0.00172264 0)
(0.999745 2.79382e-05 0)
(0.998093 -0.00138786 0)
(1.00223 0.0081093 0)
(1.00601 -0.00339143 0)
(0.998996 -0.00926066 0)
(0.989401 -0.0133541 0)
(0.994301 0.000388661 0)
(0.995328 0.00662637 0)
(1.00933 0.0245997 0)
(1.01706 0.00035674 0)
(1.01412 0.011699 0)
(1.02078 -0.0126372 0)
(1.00954 -0.0130879 0)
(1.00136 -0.0180274 0)
(0.996018 -0.0222785 0)
(0.988543 -0.0201686 0)
(0.985554 -0.0209974 0)
(0.982637 -0.0144125 0)
(0.98375 -0.00832621 0)
(0.985816 0.0016412 0)
(1.00043 4.33271e-05 0)
(0.997514 -0.00139831 0)
(1.00322 0.0079766 0)
(1.00679 -0.00333351 0)
(1.00118 -0.00904568 0)
(0.989497 -0.0132139 0)
(0.990536 0.000258575 0)
(0.991574 0.00640183 0)
(1.00959 0.0240859 0)
(1.01649 0.000415504 0)
(1.01557 0.0113257 0)
(1.02102 -0.0121963 0)
(1.0107 -0.0128476 0)
(1.00273 -0.0175826 0)
(0.99736 -0.0218823 0)
(0.989524 -0.0197621 0)
(0.985287 -0.0208098 0)
(0.981052 -0.0142214 0)
(0.981258 -0.00842992 0)
(0.983168 0.00147966 0)
(1.00076 5.98996e-05 0)
(0.997167 -0.00141197 0)
(1.00356 0.00782731 0)
(1.00706 -0.00328519 0)
(1.00247 -0.00882041 0)
(0.990053 -0.0130023 0)
(0.988504 0.000169749 0)
(0.989164 0.00612059 0)
(1.00919 0.0234979 0)
(1.01579 0.000470438 0)
(1.01584 0.0109077 0)
(1.02076 -0.0117163 0)
(1.01118 -0.0126577 0)
(1.00356 -0.0170867 0)
(0.998397 -0.0215094 0)
(0.990472 -0.0192598 0)
(0.985455 -0.0205543 0)
(0.980168 -0.0139426 0)
(0.979538 -0.00843747 0)
(0.981142 0.0011974 0)
(1.00097 7.7558e-05 0)
(0.996981 -0.00142457 0)
(1.00348 0.00766607 0)
(1.00712 -0.00324298 0)
(1.00319 -0.00859367 0)
(0.990753 -0.012743 0)
(0.98776 0.000111982 0)
(0.987945 0.00581854 0)
(1.00844 0.0228562 0)
(1.01506 0.00052755 0)
(1.01531 0.0104512 0)
(1.02016 -0.011206 0)
(1.01121 -0.0125192 0)
(1.00393 -0.0165444 0)
(0.999155 -0.0211664 0)
(0.991272 -0.0186949 0)
(0.985904 -0.020219 0)
(0.979857 -0.0135989 0)
(0.978499 -0.00833749 0)
(0.97968 0.000819524 0)
(1.0011 9.5629e-05 0)
(0.996923 -0.00143322 0)
(1.00318 0.00749489 0)
(1.0071 -0.00320476 0)
(1.00355 -0.0083697 0)
(0.991429 -0.0124535 0)
(0.987781 7.46541e-05 0)
(0.987491 0.00552041 0)
(1.00743 0.0221763 0)
(1.01429 0.000598402 0)
(1.01432 0.00995846 0)
(1.01935 -0.0106717 0)
(1.01103 -0.0124229 0)
(1.00396 -0.0159701 0)
(0.999694 -0.0208528 0)
(0.991883 -0.0180808 0)
(0.986487 -0.0198123 0)
(0.979966 -0.0132372 0)
(0.978002 -0.00808454 0)
(0.978716 0.000419405 0)
(1.00119 0.000113512 0)
(0.996954 -0.00143669 0)
(1.00281 0.00731515 0)
(1.00706 -0.0031706 0)
(1.00372 -0.00814769 0)
(0.99201 -0.0121459 0)
(0.988156 4.77377e-05 0)
(0.987412 0.005243 0)
(1.00625 0.021467 0)
(1.01346 0.000688069 0)
(1.01316 0.00942861 0)
(1.01844 -0.0101202 0)
(1.01077 -0.0123581 0)
(1.00377 -0.0153791 0)
(1.00007 -0.0205575 0)
(0.992324 -0.0174424 0)
(0.987089 -0.0193327 0)
(0.980353 -0.0128907 0)
(0.977899 -0.00766769 0)
(0.978182 4.65986e-05 0)
(1.00123 0.000130897 0)
(0.99704 -0.00143501 0)
(1.00246 0.00712782 0)
(1.007 -0.0031396 0)
(1.00377 -0.00792691 0)
(0.992481 -0.0118248 0)
(0.98864 2.60484e-05 0)
(0.987494 0.00499721 0)
(1.00505 0.0207336 0)
(1.01261 0.000796224 0)
(1.01204 0.00886062 0)
(1.01749 -0.00955261 0)
(1.01053 -0.0123327 0)
(1.00347 -0.0147594 0)
(1.00033 -0.0202739 0)
(0.992646 -0.0168223 0)
(0.987639 -0.0187467 0)
(0.98091 -0.0125959 0)
(0.978063 -0.00714142 0)
(0.978001 -0.000260541 0)
(1.00125 0.000147535 0)
(0.997156 -0.00142913 0)
(1.00217 0.0069337 0)
(1.0069 -0.00310986 0)
(1.00374 -0.00770683 0)
(0.992857 -0.0114928 0)
(0.989125 5.87799e-06 0)
(0.987673 0.00478617 0)
(1.00396 0.019977 0)
(1.01183 0.000920438 0)
(1.01108 0.00825831 0)
(1.01657 -0.00897414 0)
(1.01032 -0.0123374 0)
(1.00312 -0.0141177 0)
(1.00048 -0.0199838 0)
(0.992903 -0.0162369 0)
(0.988104 -0.0180565 0)
(0.981559 -0.0123492 0)
(0.978411 -0.00658447 0)
(0.978104 -0.000471641 0)
(1.00123 0.000163331 0)
(0.997287 -0.00141995 0)
(1.00195 0.00673369 0)
(1.00676 -0.00307975 0)
(1.00365 -0.00748809 0)
(0.993163 -0.0111499 0)
(0.989576 -1.72217e-05 0)
(0.987944 0.00460724 0)
(1.0031 0.0191966 0)
(1.01117 0.0010582 0)
(1.01031 0.00762977 0)
(1.01571 -0.00839181 0)
(1.01013 -0.0123526 0)
(1.00277 -0.0134783 0)
(1.00055 -0.0196567 0)
(0.993129 -0.0157022 0)
(0.988485 -0.017274 0)
(0.982254 -0.0121364 0)
(0.978892 -0.00598828 0)
(0.978431 -0.000572552 0)
(1.00119 0.000178569 0)
(0.997432 -0.00140893 0)
(1.00178 0.00652926 0)
(1.00661 -0.00304821 0)
(1.00352 -0.00727131 0)
(0.99343 -0.0107959 0)
(0.989988 -4.7574e-05 0)
(0.988303 0.0044558 0)
(1.00247 0.01839 0)
(1.01064 0.0012097 0)
(1.00971 0.00697512 0)
(1.01492 -0.00780512 0)
(1.00996 -0.0123695 0)
(1.00244 -0.0128516 0)
(1.00055 -0.019269 0)
(0.99335 -0.0152542 0)
(0.988792 -0.0163886 0)
(0.982973 -0.0119347 0)
(0.979478 -0.005434 0)
(0.978927 -0.000572256 0)
(1.00113 0.000193261 0)
(0.997592 -0.00139678 0)
(1.00164 0.00632082 0)
(1.00645 -0.00301353 0)
(1.00336 -0.00705691 0)
(0.993683 -0.0104308 0)
(0.990364 -8.81509e-05 0)
(0.988734 0.00432814 0)
(1.00204 0.0175568 0)
(1.01021 0.00137327 0)
(1.00923 0.00630572 0)
(1.01418 -0.0072195 0)
(1.00978 -0.0123769 0)
(1.00216 -0.0122529 0)
(1.00048 -0.0188042 0)
(0.993581 -0.0148802 0)
(0.989048 -0.0154463 0)
(0.983691 -0.0117185 0)
(0.980147 -0.00495762 0)
(0.97955 -0.000428849 0)
(1.00103 0.00020742 0)
(0.997771 -0.00138366 0)
(1.0015 0.00610821 0)
(1.00629 -0.0029741 0)
(1.00317 -0.00684613 0)
(0.993937 -0.0100535 0)
(0.99071 -0.000141973 0)
(0.989217 0.00422043 0)
(1.00174 0.0167013 0)
(1.00986 0.00154407 0)
(1.00882 0.00563642 0)
(1.01349 -0.00664398 0)
(1.00959 -0.0123626 0)
(1.00191 -0.0116862 0)
(1.00037 -0.0182542 0)
(0.993831 -0.0145717 0)
(0.989268 -0.0144715 0)
(0.984405 -0.0114626 0)
(0.980887 -0.00457664 0)
(0.980251 -0.0001785 0)
(1.00091 0.000221137 0)
(0.997967 -0.00136997 0)
(1.00136 0.00589156 0)
(1.00614 -0.0029286 0)
(1.00297 -0.00664062 0)
(0.994197 -0.0096633 0)
(0.991035 -0.00020996 0)
(0.989733 0.00412804 0)
(1.00151 0.015828 0)
(1.00955 0.00172001 0)
(1.00844 0.00496173 0)
(1.01283 -0.0060965 0)
(1.00937 -0.0123034 0)
(1.00169 -0.0111695 0)
(1.00022 -0.0176161 0)
(0.994109 -0.0143193 0)
(0.989475 -0.0135002 0)
(0.985096 -0.0111186 0)
(0.981677 -0.00433248 0)
(0.980996 0.00011601 0)
(1.00077 0.00023427 0)
(0.998174 -0.00135511 0)
(1.0012 0.00567034 0)
(1.006 -0.00287656 0)
(1.00276 -0.00644197 0)
(0.994461 -0.00925882 0)
(0.991348 -0.00029382 0)
(0.990264 0.00405024 0)
(1.00131 0.0149418 0)
(1.00925 0.001891 0)
(1.00808 0.00429686 0)
(1.01219 -0.00558164 0)
(1.00913 -0.0121954 0)
(1.0015 -0.0107113 0)
(1.00004 -0.0168931 0)
(0.994409 -0.0140974 0)
(0.989687 -0.0125672 0)
(0.985763 -0.0106909 0)
(0.982507 -0.00419517 0)
(0.981762 0.000422872 0)
(1.00062 0.000246874 0)
(0.998383 -0.0013391 0)
(1.00105 0.00544501 0)
(1.00585 -0.00281636 0)
(1.00255 -0.00625113 0)
(0.994721 -0.00884107 0)
(0.991658 -0.000390421 0)
(0.990798 0.00398315 0)
(1.00114 0.0140485 0)
(1.00896 0.00205514 0)
(1.00773 0.00367432 0)
(1.01155 -0.00510858 0)
(1.00887 -0.0120318 0)
(1.00134 -0.0103019 0)
(0.999841 -0.0161011 0)
(0.994731 -0.0138859 0)
(0.989918 -0.0116809 0)
(0.986394 -0.0101813 0)
(0.983365 -0.00415041 0)
(0.982539 0.000689735 0)
(1.00048 0.000258769 0)
(0.998581 -0.00132069 0)
(1.00091 0.0052142 0)
(1.00569 -0.00274607 0)
(1.00235 -0.00606964 0)
(0.994972 -0.00841074 0)
(0.991975 -0.000499486 0)
(0.991322 0.00392108 0)
(1.00099 0.0131568 0)
(1.00865 0.00220543 0)
(1.00739 0.00308491 0)
(1.01091 -0.00468388 0)
(1.00861 -0.0118104 0)
(1.00119 -0.00994311 0)
(0.999628 -0.0152521 0)
(0.995064 -0.0136568 0)
(0.990183 -0.0108785 0)
(0.986985 -0.00958081 0)
(0.984243 -0.00415662 0)
(0.983326 0.000891371 0)
(1.00036 0.000270181 0)
(0.998762 -0.00130006 0)
(1.00078 0.00497646 0)
(1.00551 -0.00266762 0)
(1.00217 -0.00589642 0)
(0.995207 -0.007971 0)
(0.992304 -0.00061787 0)
(0.991831 0.00385873 0)
(1.00086 0.012276 0)
(1.00833 0.00232144 0)
(1.00706 0.00253534 0)
(1.01027 -0.00430461 0)
(1.00834 -0.0115349 0)
(1.00106 -0.00963067 0)
(0.999407 -0.0143593 0)
(0.995398 -0.0133992 0)
(0.990491 -0.0101623 0)
(0.987532 -0.00890713 0)
(0.985125 -0.00418304 0)
(0.98413 0.000997207 0)
(1.00027 0.000280602 0)
(0.998921 -0.00127629 0)
(1.00067 0.0047311 0)
(1.00531 -0.00257895 0)
(1.00201 -0.00573339 0)
(0.995426 -0.00752327 0)
(0.992646 -0.00074219 0)
(0.99232 0.0037882 0)
(1.00075 0.011414 0)
(1.00799 0.00240487 0)
(1.00675 0.00204433 0)
(1.00963 -0.00397221 0)
(1.00806 -0.0112087 0)
(1.00096 -0.00935176 0)
(0.999184 -0.0134433 0)
(0.995726 -0.0130905 0)
(0.990851 -0.00953922 0)
(0.988037 -0.00818407 0)
(0.985996 -0.00419817 0)
(0.984958 0.000983763 0)
(1.00019 0.000289725 0)
(0.999059 -0.00124691 0)
(1.00058 0.00447661 0)
(1.00508 -0.00247871 0)
(1.00187 -0.00558124 0)
(0.995631 -0.00706645 0)
(0.993001 -0.00086947 0)
(0.992791 0.00370478 0)
(1.00066 0.0105797 0)
(1.00763 0.00244913 0)
(1.00645 0.00160927 0)
(1.009 -0.00368339 0)
(1.00777 -0.0108413 0)
(1.00087 -0.00909692 0)
(0.998964 -0.0125223 0)
(0.996039 -0.0127178 0)
(0.991264 -0.00901796 0)
(0.988507 -0.00742814 0)
(0.986835 -0.00416023 0)
(0.985818 0.000840374 0)
(1.00014 0.000298004 0)
(0.999179 -0.00121207 0)
(1.00051 0.00421417 0)
(1.00485 -0.00236981 0)
(1.00175 -0.0054374 0)
(0.995824 -0.00660858 0)
(0.993367 -0.000992922 0)
(0.993245 0.00360712 0)
(1.00058 0.0097809 0)
(1.00727 0.00244614 0)
(1.00616 0.0012201 0)
(1.00837 -0.00342966 0)
(1.00748 -0.0104384 0)
(1.00081 -0.00886054 0)
(0.99875 -0.0116149 0)
(0.99633 -0.0122716 0)
(0.991731 -0.0085918 0)
(0.988959 -0.00669263 0)
(0.98762 -0.00401433 0)
(0.986705 0.000596484 0)
(1.0001 0.000304676 0)
(0.999285 -0.00117194 0)
(1.00046 0.00394694 0)
(1.0046 -0.00225403 0)
(1.00165 -0.0052983 0)
(0.996009 -0.0061618 0)
(0.993739 -0.00110481 0)
(0.993687 0.00348798 0)
(1.00051 0.00902494 0)
(1.0069 0.0023985 0)
(1.00587 0.000883089 0)
(1.00775 -0.00320039 0)
(1.00717 -0.0100073 0)
(1.00077 -0.00863606 0)
(0.998546 -0.010717 0)
(0.996592 -0.0117562 0)
(0.992242 -0.00824112 0)
(0.98941 -0.00600958 0)
(0.988342 -0.00375607 0)
(0.987605 0.000293643 0)
(1.00006 0.00031051 0)
(0.999381 -0.0011265 0)
(1.00041 0.0036733 0)
(1.00435 -0.00213166 0)
(1.00155 -0.00516049 0)
(0.996188 -0.00572311 0)
(0.994112 -0.00120176 0)
(0.994118 0.00334154 0)
(1.00044 0.0083097 0)
(1.00653 0.00231102 0)
(1.00559 0.000595519 0)
(1.00714 -0.00299125 0)
(1.00685 -0.0095494 0)
(1.00076 -0.00842003 0)
(0.998355 -0.00984381 0)
(0.996817 -0.0111718 0)
(0.99279 -0.007927 0)
(0.989879 -0.00539211 0)
(0.988993 -0.0034178 0)
(0.988491 -7.42544e-06 0)
(1.00004 0.000314403 0)
(0.99947 -0.00107487 0)
(1.00037 0.00339527 0)
(1.00409 -0.00200723 0)
(1.00145 -0.00502054 0)
(0.996362 -0.00530368 0)
(0.994483 -0.00127507 0)
(0.99454 0.00316589 0)
(1.00038 0.00763515 0)
(1.00616 0.0021912 0)
(1.00531 0.000332335 0)
(1.00655 -0.00279943 0)
(1.00651 -0.00905956 0)
(1.00076 -0.00821033 0)
(0.998184 -0.00902468 0)
(0.997003 -0.0105121 0)
(0.993361 -0.00764592 0)
(0.990373 -0.00486551 0)
(0.989577 -0.00303555 0)
(0.989334 -0.000213931 0)
(1.00002 0.000316841 0)
(0.999553 -0.00102061 0)
(1.00033 0.00312018 0)
(1.00384 -0.00188696 0)
(1.00137 -0.00487731 0)
(0.996534 -0.00490914 0)
(0.994848 -0.00133076 0)
(0.994953 0.00297105 0)
(1.00033 0.00700653 0)
(1.00579 0.00204674 0)
(1.00503 0.000101003 0)
(1.00598 -0.00261045 0)
(1.00616 -0.00855178 0)
(1.0008 -0.00800483 0)
(0.99804 -0.0082609 0)
(0.997147 -0.00979489 0)
(0.993938 -0.0073815 0)
(0.990902 -0.00443003 0)
(0.990116 -0.00262617 0)
(0.990109 -0.000307418 0)
(0.999995 0.000319767 0)
(0.999631 -0.000966727 0)
(1.00029 0.00285197 0)
(1.00359 -0.00177789 0)
(1.00129 -0.00472557 0)
(0.996704 -0.00453269 0)
(0.995206 -0.00136887 0)
(0.995357 0.00275705 0)
(1.00027 0.0064094 0)
(1.00542 0.00188332 0)
(1.00476 -0.000107245 0)
(1.00542 -0.00242646 0)
(1.00579 -0.00802281 0)
(1.00085 -0.00779609 0)
(0.997932 -0.00756008 0)
(0.997251 -0.0090412 0)
(0.994507 -0.00709502 0)
(0.99147 -0.00408633 0)
(0.990622 -0.00223645 0)
(0.990798 -0.000319147 0)
(0.999975 0.000321905 0)
(0.999704 -0.000912824 0)
(1.00026 0.00259411 0)
(1.00334 -0.00167731 0)
(1.00121 -0.0045684 0)
(0.996872 -0.00418563 0)
(0.995553 -0.00138478 0)
(0.99575 0.0025204 0)
(1.00022 0.00585428 0)
(1.00506 0.00170943 0)
(1.0045 -0.00030658 0)
(1.00489 -0.00225137 0)
(1.0054 -0.00746204 0)
(1.00091 -0.0075698 0)
(0.997865 -0.00692917 0)
(0.997319 -0.00826144 0)
(0.995052 -0.00678662 0)
(0.992071 -0.00380253 0)
(0.991115 -0.00189289 0)
(0.991404 -0.000242503 0)
(0.999956 0.000322933 0)
(0.999773 -0.000861789 0)
(1.00022 0.00235714 0)
(1.0031 -0.00158953 0)
(1.00114 -0.00440939 0)
(0.997039 -0.00386129 0)
(0.995889 -0.00139081 0)
(0.996134 0.00226593 0)
(1.00016 0.00534071 0)
(1.0047 0.00153847 0)
(1.00426 -0.00049771 0)
(1.00439 -0.00208432 0)
(1.005 -0.00688321 0)
(1.00098 -0.00732117 0)
(0.997843 -0.00637186 0)
(0.997356 -0.00747347 0)
(0.995564 -0.00644304 0)
(0.992699 -0.00356706 0)
(0.991608 -0.0015925 0)
(0.991938 -0.000118119 0)
(0.999938 0.000324643 0)
(0.999837 -0.000818424 0)
(1.00019 0.00214424 0)
(1.00285 -0.00150813 0)
(1.00108 -0.00425576 0)
(0.997203 -0.00355299 0)
(0.996212 -0.00138669 0)
(0.996509 0.00199467 0)
(1.00011 0.00485464 0)
(1.00434 0.00138116 0)
(1.00402 -0.000680253 0)
(1.00393 -0.00193893 0)
(1.00458 -0.00628742 0)
(1.00104 -0.00704238 0)
(0.99787 -0.00589169 0)
(0.997374 -0.00670241 0)
(0.99603 -0.00605501 0)
(0.993345 -0.00338424 0)
(0.992111 -0.00133406 0)
(0.992418 1.74138e-05 0)
(0.999921 0.000327437 0)
(0.999898 -0.00078053 0)
(1.00015 0.00194803 0)
(1.00261 -0.00142262 0)
(1.00102 -0.00411687 0)
(0.997367 -0.00326635 0)
(0.996519 -0.00136946 0)
(0.996874 0.00169942 0)
(1.00007 0.0043931 0)
(1.00398 0.00124989 0)
(1.00379 -0.000837 0)
(1.00351 -0.00181951 0)
(1.00416 -0.00568544 0)
(1.00109 -0.0067195 0)
(0.997941 -0.00548185 0)
(0.997381 -0.00596391 0)
(0.996441 -0.0056244 0)
(0.993998 -0.0032402 0)
(0.992633 -0.0011198 0)
(0.992859 0.000154813 0)
(0.999905 0.000327776 0)
(0.999955 -0.000748426 0)
(1.00012 0.00176975 0)
(1.00237 -0.00133192 0)
(1.00097 -0.00398952 0)
(0.997533 -0.00300634 0)
(0.996806 -0.00131941 0)
(0.997227 0.00139912 0)
(1.00005 0.00394826 0)
(1.00363 0.00114154 0)
(1.00357 -0.000969593 0)
(1.00313 -0.00174049 0)
(1.00373 -0.00510257 0)
(1.00112 -0.00635502 0)
(0.998053 -0.00513866 0)
(0.997392 -0.00528635 0)
(0.996791 -0.00515355 0)
(0.994645 -0.00311409 0)
(0.993179 -0.000971563 0)
(0.993274 0.000282695 0)
(0.99989 0.000329567 0)
(1.00001 -0.0007257 0)
(1.0001 0.00159474 0)
(1.00213 -0.00121339 0)
(1.00092 -0.00386355 0)
(0.997702 -0.0027764 0)
(0.997074 -0.00123715 0)
(0.997566 0.00111786 0)
(1.00004 0.00352784 0)
(1.00329 0.00106464 0)
(1.00336 -0.00107365 0)
(1.00279 -0.00170427 0)
(1.00331 -0.00456692 0)
(1.00113 -0.00596078 0)
(0.998203 -0.00484235 0)
(0.997424 -0.00468664 0)
(0.997086 -0.00465529 0)
(0.995268 -0.00297884 0)
(0.993749 -0.000881456 0)
(0.993681 0.00039721 0)
(0.999877 0.000326685 0)
(1.00006 -0.000703034 0)
(1.00008 0.00142444 0)
(1.0019 -0.00108257 0)
(1.00088 -0.00374017 0)
(0.997877 -0.00256852 0)
(0.997324 -0.00112665 0)
(0.997889 0.000855415 0)
(1.00004 0.00310551 0)
(1.00295 0.00102133 0)
(1.00314 -0.00112478 0)
(1.0025 -0.00169433 0)
(1.00292 -0.00408972 0)
(1.00111 -0.00553786 0)
(0.998384 -0.00456904 0)
(0.997488 -0.00416708 0)
(0.997336 -0.00415423 0)
(0.995854 -0.00282283 0)
(0.994341 -0.000834667 0)
(0.99409 0.000485291 0)
(0.999865 0.000327045 0)
(1.00011 -0.000694138 0)
(1.00006 0.00125901 0)
(1.00167 -0.000926502 0)
(1.00084 -0.00360572 0)
(0.998062 -0.00243118 0)
(0.997558 -0.000992473 0)
(0.998189 0.000631512 0)
(1.00006 0.00269854 0)
(1.00263 0.000984092 0)
(1.00292 -0.00112526 0)
(1.00225 -0.00170257 0)
(1.00256 -0.0036643 0)
(1.00108 -0.00509301 0)
(0.998586 -0.0043095 0)
(0.99759 -0.00371995 0)
(0.997551 -0.00366773 0)
(0.996395 -0.00263546 0)
(0.994946 -0.000814428 0)
(0.994516 0.000534732 0)
(0.999855 0.000318179 0)
(1.00015 -0.000670666 0)
(1.00006 0.00107571 0)
(1.00145 -0.000771294 0)
(1.00079 -0.00343549 0)
(0.998261 -0.00234175 0)
(0.997785 -0.000882942 0)
(0.998465 0.000424838 0)
(1.0001 0.00233735 0)
(1.00233 0.000971944 0)
(1.00269 -0.00105655 0)
(1.00203 -0.00168657 0)
(1.00223 -0.00327738 0)
(1.00103 -0.00463963 0)
(0.998797 -0.00404651 0)
(0.997729 -0.00333332 0)
(0.997743 -0.0032075 0)
(0.996883 -0.0024171 0)
(0.995548 -0.000799912 0)
(0.994963 0.000546031 0)
(0.999848 0.000305514 0)
(1.00019 -0.000645492 0)
(1.00006 0.00087154 0)
(1.00124 -0.000603085 0)
(1.00075 -0.00326811 0)
(0.998463 -0.00226546 0)
(0.997995 -0.000742565 0)
(0.998725 0.000309233 0)
(1.00017 0.00195407 0)
(1.00207 0.000909756 0)
(1.00246 -0.000981933 0)
(1.00183 -0.00166046 0)
(1.00194 -0.00294984 0)
(1.00096 -0.00419631 0)
(0.998997 -0.0037735 0)
(0.997893 -0.00300311 0)
(0.997915 -0.00278166 0)
(0.997312 -0.00218018 0)
(0.996134 -0.000783931 0)
(0.995436 0.000521135 0)
(0.999842 0.0002909 0)
(1.00023 -0.000617413 0)
(1.00008 0.000668199 0)
(1.00104 -0.000456705 0)
(1.00069 -0.00303813 0)
(0.998678 -0.00217405 0)
(0.998215 -0.000604121 0)
(0.998953 0.000238507 0)
(1.00024 0.00155355 0)
(1.00184 0.00078346 0)
(1.00224 -0.000913375 0)
(1.00165 -0.00161912 0)
(1.00168 -0.00266998 0)
(1.00089 -0.00377411 0)
(0.999198 -0.0034976 0)
(0.998093 -0.00273019 0)
(0.998088 -0.00240535 0)
(0.997693 -0.00193749 0)
(0.996693 -0.000757612 0)
(0.995929 0.00047068 0)
(0.999838 0.000265119 0)
(1.00026 -0.000570574 0)
(1.00011 0.000460126 0)
(1.00086 -0.000329182 0)
(1.00063 -0.00271029 0)
(0.998891 -0.00209899 0)
(0.998431 -0.000543202 0)
(0.999155 0.000169016 0)
(1.00032 0.00121468 0)
(1.00164 0.000646443 0)
(1.00203 -0.000847621 0)
(1.00149 -0.00155854 0)
(1.00147 -0.00241386 0)
(1.00083 -0.00336807 0)
(0.999392 -0.00320501 0)
(0.998324 -0.00248454 0)
(0.998276 -0.00207076 0)
(0.998035 -0.00168205 0)
(0.99722 -0.000705589 0)
(0.996433 0.000417454 0)
(0.999837 0.00023781 0)
(1.00028 -0.000521131 0)
(1.00015 0.000256709 0)
(1.00071 -0.00020859 0)
(1.00056 -0.00238665 0)
(0.999094 -0.00203351 0)
(0.998654 -0.000503039 0)
(0.999336 0.000146723 0)
(1.00039 0.000932607 0)
(1.00148 0.000484161 0)
(1.00183 -0.000792408 0)
(1.00135 -0.00147214 0)
(1.0013 -0.00216684 0)
(1.00077 -0.00297766 0)
(0.999575 -0.00290077 0)
(0.998572 -0.00225439 0)
(0.998478 -0.00178236 0)
(0.998343 -0.00143615 0)
(0.997702 -0.000639456 0)
(0.996934 0.000360003 0)
(0.999837 0.000203208 0)
(1.00029 -0.000458037 0)
(1.00019 7.22355e-05 0)
(1.00058 -0.000160085 0)
(1.00048 -0.00205841 0)
(0.999286 -0.00191703 0)
(0.998879 -0.000484722 0)
(0.999501 0.000121834 0)
(1.00045 0.000704651 0)
(1.00135 0.000339616 0)
(1.00166 -0.000728719 0)
(1.00124 -0.00136913 0)
(1.00115 -0.00194466 0)
(1.00072 -0.00262605 0)
(0.999741 -0.00260591 0)
(0.998827 -0.00204467 0)
(0.998695 -0.00153851 0)
(0.998626 -0.00121027 0)
(0.998144 -0.000554997 0)
(0.997425 0.000316009 0)
(0.99984 0.000167514 0)
(1.00029 -0.000397366 0)
(1.00023 -9.76809e-05 0)
(1.00049 -0.000157011 0)
(1.00041 -0.0017166 0)
(0.999458 -0.00176738 0)
(0.999103 -0.000487547 0)
(0.999656 9.65241e-05 0)
(1.00051 0.000532694 0)
(1.00125 0.000208925 0)
(1.00152 -0.000687843 0)
(1.00114 -0.00128119 0)
(1.00104 -0.00175184 0)
(1.00069 -0.00230682 0)
(0.999897 -0.00230822 0)
(0.999088 -0.00183593 0)
(0.998928 -0.00132393 0)
(0.998895 -0.00100152 0)
(0.998546 -0.000459641 0)
(0.997895 0.0002874 0)
(0.999843 0.000128848 0)
(1.00029 -0.000338515 0)
(1.00027 -0.000235053 0)
(1.00043 -0.000198305 0)
(1.00034 -0.00139563 0)
(0.999609 -0.00157841 0)
(0.999319 -0.000493376 0)
(0.999806 6.31814e-05 0)
(1.00057 0.000394545 0)
(1.00116 0.000102137 0)
(1.00139 -0.000648001 0)
(1.00106 -0.00118799 0)
(1.00096 -0.00156689 0)
(1.00067 -0.00201225 0)
(1.00004 -0.00201956 0)
(0.99934 -0.00163313 0)
(0.99917 -0.0011446 0)
(0.999152 -0.000818404 0)
(0.998913 -0.00036552 0)
(0.998339 0.000269362 0)
(0.999848 9.26749e-05 0)
(1.00028 -0.000287101 0)
(1.00031 -0.000344846 0)
(1.00039 -0.000256841 0)
(1.00029 -0.00109803 0)
(0.999736 -0.0013625 0)
(0.999521 -0.000494244 0)
(0.999949 1.52311e-05 0)
(1.00062 0.000280273 0)
(1.0011 2.69441e-05 0)
(1.00129 -0.000601317 0)
(1.001 -0.00109066 0)
(1.0009 -0.00139831 0)
(1.00067 -0.00175118 0)
(1.00018 -0.00175338 0)
(0.999583 -0.0014317 0)
(0.99942 -0.000983606 0)
(0.999406 -0.000655679 0)
(0.99925 -0.000266301 0)
(0.998755 0.000265943 0)
(0.999853 5.81329e-05 0)
(1.00027 -0.000239366 0)
(1.00033 -0.000416419 0)
(1.00038 -0.000327673 0)
(1.00026 -0.000849163 0)
(0.999839 -0.00113783 0)
(0.999704 -0.000481756 0)
(1.00009 -3.72078e-05 0)
(1.00068 0.00018823 0)
(1.00105 -2.82411e-05 0)
(1.0012 -0.000544021 0)
(1.00095 -0.00098475 0)
(1.00087 -0.00124363 0)
(1.00069 -0.00152018 0)
(1.00031 -0.00151074 0)
(0.999815 -0.00123834 0)
(0.999668 -0.000835468 0)
(0.999656 -0.000518937 0)
(0.999559 -0.000174399 0)
(0.999137 0.000271205 0)
(0.999858 2.88636e-05 0)
(1.00025 -0.000195752 0)
(1.00035 -0.000427961 0)
(1.00039 -0.000404466 0)
(1.00025 -0.000671721 0)
(0.999924 -0.000923493 0)
(0.999862 -0.00044548 0)
(1.00022 -9.11159e-05 0)
(1.00074 0.000103578 0)
(1.00102 -7.33071e-05 0)
(1.00113 -0.00048757 0)
(1.00091 -0.000877437 0)
(1.00086 -0.001096 0)
(1.00072 -0.00131638 0)
(1.00044 -0.0012902 0)
(1.00004 -0.00105622 0)
(0.999913 -0.000695193 0)
(0.999902 -0.000398517 0)
(0.999848 -9.29404e-05 0)
(0.999487 0.000288691 0)
(0.999864 7.23856e-06 0)
(1.00023 -0.000162944 0)
(1.00035 -0.000390972 0)
(1.00041 -0.000465891 0)
(1.00026 -0.0005651 0)
(0.999999 -0.000728288 0)
(0.999995 -0.000383689 0)
(1.00033 -0.000133474 0)
(1.0008 2.56655e-05 0)
(1.00101 -0.000109326 0)
(1.00108 -0.000430671 0)
(1.00089 -0.000765482 0)
(1.00085 -0.000948593 0)
(1.00076 -0.00113336 0)
(1.00057 -0.00109415 0)
(1.00025 -0.000885364 0)
(1.00015 -0.000567867 0)
(1.00014 -0.000291463 0)
(1.00012 -2.43333e-05 0)
(0.999807 0.000307764 0)
(0.999868 -6.88398e-06 0)
(1.00021 -0.000141783 0)
(1.00034 -0.000337647 0)
(1.00043 -0.000501403 0)
(1.00029 -0.000503573 0)
(1.00007 -0.000560961 0)
(1.0001 -0.000301778 0)
(1.00043 -0.000152672 0)
(1.00086 -4.11114e-05 0)
(1.00101 -0.000143652 0)
(1.00105 -0.000375189 0)
(1.00087 -0.000654903 0)
(1.00085 -0.000807847 0)
(1.00081 -0.000962302 0)
(1.0007 -0.000925811 0)
(1.00045 -0.000734519 0)
(1.00038 -0.000452562 0)
(1.00036 -0.000195399 0)
(1.00037 4.00818e-05 0)
(1.0001 0.000321634 0)
(0.999873 -1.46666e-05 0)
(1.0002 -0.000132662 0)
(1.00033 -0.000276999 0)
(1.00045 -0.000497524 0)
(1.00033 -0.000470847 0)
(1.00015 -0.000434718 0)
(1.00019 -0.000212585 0)
(1.00051 -0.000144718 0)
(1.00091 -8.93685e-05 0)
(1.00102 -0.000179074 0)
(1.00103 -0.000331458 0)
(1.00087 -0.000550421 0)
(1.00086 -0.000674631 0)
(1.00086 -0.000802512 0)
(1.00083 -0.000774312 0)
(1.00064 -0.00060479 0)
(1.0006 -0.000348211 0)
(1.00058 -0.000113741 0)
(1.0006 0.000101472 0)
(1.00038 0.000330748 0)
(0.999877 -1.67708e-05 0)
(1.00019 -0.000133608 0)
(1.00031 -0.000217869 0)
(1.00046 -0.000457744 0)
(1.00038 -0.000445871 0)
(1.00023 -0.0003481 0)
(1.00027 -0.000124774 0)
(1.00057 -0.000110881 0)
(1.00095 -0.000113085 0)
(1.00105 -0.000201482 0)
(1.00104 -0.000296931 0)
(1.00087 -0.000452889 0)
(1.00088 -0.000546664 0)
(1.00091 -0.000654727 0)
(1.00095 -0.000630668 0)
(1.00082 -0.000490697 0)
(1.00081 -0.000261383 0)
(1.00079 -4.66383e-05 0)
(1.00082 0.000154809 0)
(1.00063 0.000343146 0)
(0.999881 -1.5759e-05 0)
(1.00018 -0.000134797 0)
(1.00029 -0.000168633 0)
(1.00046 -0.000393122 0)
(1.00044 -0.000411402 0)
(1.00032 -0.000292774 0)
(1.00035 -4.96861e-05 0)
(1.00061 -6.25225e-05 0)
(1.00098 -0.000110802 0)
(1.00107 -0.000211786 0)
(1.00106 -0.000270211 0)
(1.00089 -0.000372299 0)
(1.00091 -0.000424891 0)
(1.00096 -0.000514725 0)
(1.00105 -0.000501695 0)
(1.00099 -0.000386728 0)
(1.00101 -0.000188461 0)
(1.001 9.60635e-06 0)
(1.00102 0.000197357 0)
(1.00085 0.000358703 0)
(0.999884 -1.37393e-05 0)
(1.00018 -0.000132101 0)
(1.00028 -0.000129394 0)
(1.00046 -0.000318121 0)
(1.00048 -0.000361319 0)
(1.00041 -0.000258611 0)
(1.00043 5.16449e-06 0)
(1.00065 -7.34199e-06 0)
(1.001 -8.12727e-05 0)
(1.0011 -0.00020614 0)
(1.00109 -0.000242768 0)
(1.00093 -0.00030576 0)
(1.00094 -0.000319789 0)
(1.001 -0.000382381 0)
(1.00115 -0.000384752 0)
(1.00115 -0.000292279 0)
(1.00119 -0.000122744 0)
(1.00119 5.0681e-05 0)
(1.00121 0.000227261 0)
(1.00105 0.000368802 0)
(0.999888 -1.05924e-05 0)
(1.00018 -0.000125833 0)
(1.00028 -9.8487e-05 0)
(1.00046 -0.000242759 0)
(1.00052 -0.000291366 0)
(1.0005 -0.000229662 0)
(1.00051 3.72615e-05 0)
(1.00068 4.87823e-05 0)
(1.00101 -3.4199e-05 0)
(1.00112 -0.000178738 0)
(1.00113 -0.000210418 0)
(1.00098 -0.000246356 0)
(1.00099 -0.000235914 0)
(1.00105 -0.000265136 0)
(1.00123 -0.000270463 0)
(1.00129 -0.000209403 0)
(1.00136 -6.28341e-05 0)
(1.00138 8.07899e-05 0)
(1.00139 0.000244859 0)
(1.00124 0.000372717 0)
(0.999892 -8.37573e-06 0)
(1.00017 -0.000112184 0)
(1.00028 -7.35687e-05 0)
(1.00046 -0.000172076 0)
(1.00055 -0.000208631 0)
(1.00059 -0.000192982 0)
(1.00059 5.27619e-05 0)
(1.00072 0.000100651 0)