/*--------------------------------*- C++ -*----------------------------------*\
| =========                 |                                                 |
| \\      /  F ield         | OpenFOAM: The Open Source CFD Toolbox           |
|  \\    /   O peration     | Version:  2506                                  |
|   \\  /    A nd           | Website:  www.openfoam.com                      |
|    \\/     M anipulation  |                                                 |
\*---------------------------------------------------------------------------*/
FoamFile
{
    version     2.0;
    format      ascii;
    arch        "LSB;label=32;scalar=64";
    class       volScalarField;
    location    "3.45";
    object      p;
}
// * * * * * * * * * * * * * * * * * * * * * * * * * * * * * * * * * * * * * //

dimensions      [0 2 -2 0 0 0 0];

internalField   nonuniform List<scalar> 
9600
(
-1.12042e-10
0.000992281
0.00168912
-9.11443e-05
-0.00232386
0.00108047
0.00410071
0.00250927
0.00193314
0.0027492
0.00206439
0.000963646
0.000964972
0.0016113
0.00108129
0.00171197
0.00116917
0.00262374
0.00304646
0.0050445
2.83078e-06
0.000999163
0.00167552
-0.000115273
-0.00230909
0.00109885
0.0040081
0.00250618
0.00192776
0.00273289
0.00207245
0.000957249
0.000981724
0.00160139
0.00109354
0.00170671
0.00119452
0.00257166
0.00308104
0.00488614
7.33818e-06
0.00100541
0.00165065
-0.000138982
-0.00229299
0.00111294
0.00393509
0.00250214
0.00191548
0.00271998
0.00207889
0.000947467
0.00100014
0.0015909
0.00111505
0.00169241
0.00122975
0.00249702
0.00311286
0.0046667
1.31914e-05
0.00100877
0.0016239
-0.000156767
-0.00227335
0.001121
0.00386718
0.00249619
0.00189934
0.00271358
0.00208077
0.000934033
0.00102051
0.00158273
0.00114106
0.00167233
0.00126367
0.00242417
0.00312456
0.00444548
2.15424e-05
0.00100958
0.00159704
-0.000165284
-0.00224639
0.00112233
0.00380526
0.00248689
0.0018791
0.00271078
0.00208029
0.000918575
0.0010437
0.0015753
0.00117021
0.00164809
0.00129531
0.00235306
0.00311332
0.00423506
3.31295e-05
0.00100737
0.00157132
-0.00016218
-0.00220981
0.00111767
0.00375009
0.00247407
0.00185595
0.00271066
0.00208065
0.000902344
0.00106855
0.0015677
0.00120168
0.00162139
0.00132538
0.00228471
0.00308088
0.00404125
4.78332e-05
0.00100246
0.00154926
-0.000147493
-0.00216347
0.00110936
0.00370185
0.0024594
0.00183232
0.00271273
0.00208397
0.000885732
0.00109415
0.0015598
0.00123425
0.00159408
0.00135263
0.00221938
0.00303079
0.00386365
6.5075e-05
0.000995978
0.00153214
-0.000122478
-0.00210876
0.00110002
0.0036597
0.00244483
0.00180957
0.00271632
0.00209125
0.000868662
0.00112017
0.00155158
0.00126712
0.00156799
0.00137339
0.00215959
0.00296641
0.00369673
8.41856e-05
0.000988986
0.00151943
-8.43826e-05
-0.00204764
0.00109127
0.00362201
0.00243139
0.00178791
0.0027207
0.00210243
0.000850888
0.00114637
0.0015433
0.00129991
0.00154436
0.00138519
0.00210696
0.00288872
0.00353336
0.000104611
0.000982107
0.00150958
-4.99663e-05
-0.00198193
0.00108365
0.00358683
0.00241922
0.001767
0.00272497
0.00211677
0.000832122
0.00117255
0.00153571
0.00133159
0.00152407
0.00138732
0.00206174
0.00279747
0.00336827
0.000126008
0.000975587
0.00150106
-1.37558e-05
-0.00191304
0.00107703
0.00355259
0.00240795
0.00174644
0.0027282
0.00213335
0.000812143
0.00119852
0.00152966
0.00136065
0.0015083
0.00137947
0.00202211
0.00269442
0.0031983
0.000148223
0.00096945
0.00149281
2.3615e-05
-0.00184196
0.00107105
0.00351829
0.00239703
0.00172589
0.00272971
0.00215143
0.000790943
0.00122387
0.00152606
0.0013858
0.00149792
0.00136103
0.00198569
0.00258376
0.00302105
0.000171217
0.000963649
0.00148429
6.14848e-05
-0.00176921
0.00106544
0.00348332
0.00238601
0.00170528
0.00272904
0.00217042
0.00076879
0.00124798
0.00152587
0.0014061
0.00149284
0.00133213
0.00194982
0.00247045
0.00283509
0.000195003
0.000958137
0.00147538
9.93929e-05
-0.00169503
0.00106005
0.00344736
0.00237463
0.0016847
0.00272602
0.00218995
0.000746143
0.00127007
0.00153
0.00142085
0.00149236
0.00129401
0.00191078
0.00235908
0.00264088
0.000219613
0.000952868
0.00146615
0.000137018
-0.00161945
0.00105484
0.00341024
0.00236275
0.00166419
0.00272075
0.00220982
0.000723557
0.00128929
0.00153922
0.00142957
0.00149567
0.00124866
0.00186392
0.00225306
0.0024407
0.000245086
0.000947794
0.00145675
0.000174191
-0.00154246
0.00104989
0.00337183
0.00235031
0.00164385
0.00271347
0.00222984
0.000701633
0.00130482
0.00155404
0.00143217
0.00150137
0.00119877
0.00180539
0.00215408
0.00223806
0.000271454
0.000942869
0.00144734
0.000210845
-0.00146404
0.00104527
0.00333201
0.00233731
0.00162376
0.00270444
0.00224979
0.000680986
0.00131595
0.00157459
0.00142913
0.00150731
0.0011471
0.00173309
0.00206231
0.00203718
0.000298736
0.000938008
0.00143805
0.000246963
-0.00138422
0.00104114
0.00329061
0.00232382
0.00160391
0.0026939
0.00226949
0.000662089
0.00132211
0.00160062
0.00142133
0.00151109
0.00109595
0.00164621
0.00197697
0.0018427
0.000326952
0.000930638
0.00142901
0.000282559
-0.00130312
0.00103765
0.00324752
0.00230993
0.00158421
0.00268206
0.00228883
0.000645162
0.00132295
0.00163166
0.00141013
0.00151014
0.00104677
0.00154551
0.00189618
0.00165957
0.000356123
0.000925953
0.00142029
0.000317658
-0.00122095
0.00103496
0.0032026
0.00229576
0.00156455
0.00266903
0.00230773
0.00063036
0.00131823
0.00166693
0.00139706
0.00150224
0.00100038
0.00143267
0.00181702
0.00149264
0.000386237
0.000921717
0.00141192
0.000352285
-0.00113792
0.0010333
0.0031557
0.00228144
0.00154491
0.00265468
0.00232626
0.000617743
0.00130807
0.00170548
0.00138298
0.0014859
0.000956518
0.00130953
0.00173577
0.00134585
0.000417251
0.000917978
0.00140393
0.000386474
-0.00105434
0.00103288
0.00310671
0.00226707
0.00152527
0.00263885
0.00234463
0.000607092
0.00129272
0.00174655
0.00136851
0.00146011
0.000916136
0.00117851
0.00164856
0.00122128
0.000449104
0.0009149
0.00139628
0.000420253
-0.000970518
0.00103387
0.00305564
0.00225268
0.00150566
0.00262124
0.00236327
0.000598241
0.00127198
0.0017895
0.00135443
0.00142411
0.000879885
0.00104263
0.00155192
0.00111919
0.000481712
0.000912679
0.00138893
0.000452823
-0.000886706
0.00103636
0.00300253
0.00223821
0.00148629
0.00260135
0.00238264
0.000591383
0.00124551
0.00183363
0.00134161
0.00137721
0.000847694
0.000905305
0.00144318
0.0010385
0.000514956
0.000911611
0.0013818
0.000486721
-0.000803173
0.00104045
0.00294751
0.00222361
0.00146751
0.0025785
0.00240297
0.000586927
0.00121285
0.00187824
0.00133105
0.00131854
0.000819543
0.000770657
0.00132004
0.000976777
0.000548684
0.000912045
0.00137481
0.000520705
-0.000720203
0.00104615
0.00289079
0.00220877
0.00144983
0.00255203
0.00242414
0.000585456
0.00117331
0.00192241
0.0013242
0.00124729
0.000794515
0.000643802
0.00118018
0.000928763
0.00058272
0.00091431
0.00136788
0.000554854
-0.000638031
0.00105329
0.00283276
0.00219334
0.00143364
0.00252171
0.00244639
0.00058776
0.00112636
0.00196468
0.00132287
0.00116316
0.000769838
0.000531093
0.00102283
0.000884424
0.000616845
0.000918854
0.00136096
0.000589276
-0.000556716
0.00106158
0.00277404
0.00217684
0.00141909
0.00248756
0.00247328
0.000594726
0.00107191
0.00200299
0.00132868
0.00106701
0.000741331
0.000439331
0.000851741
0.000829547
0.000650824
0.00092606
0.00135395
0.000624236
-0.000476183
0.00107068
0.00271539
0.00215894
0.0014063
0.00244963
0.00249488
0.000607101
0.00101036
0.0020348
0.00134332
0.000960916
0.000703665
0.000373215
0.000677319
0.000749498
0.00068439
0.000936086
0.00134689
0.000659706
-0.000396435
0.00108007
0.00265767
0.00213949
0.00139511
0.00240814
0.00251248
0.000625463
0.000942231
0.00205719
0.00136811
0.00084853
0.000651243
0.000332349
0.000514202
0.000636155
0.000717231
0.000950462
0.00133997
0.000695226
-0.000317315
0.00108893
0.00260172
0.0021187
0.00138493
0.00236358
0.00252691
0.000650142
0.000868175
0.00206741
0.00140328
0.000734923
0.000579866
0.000310017
0.000376375
0.000494194
0.000749077
0.000969117
0.00133341
0.000730318
-0.00023832
0.0010965
0.00254816
0.00209718
0.00137497
0.0023162
0.00253769
0.000681196
0.000789546
0.00206304
0.00144789
0.000625568
0.000488262
0.000296686
0.000272436
0.000339976
0.000779697
0.000992176
0.00132757
0.000764747
-0.000158675
0.0011022
0.00249912
0.00207614
0.00136456
0.00226572
0.00254395
0.000718764
0.000708001
0.00204174
0.00150022
0.00052561
0.000377956
0.000283472
0.000202433
0.000192386
0.000808846
0.00101979
0.00132304
0.000797905
-7.74888e-05
0.00110585
0.00245883
0.00205698
0.00135348
0.00221146
0.00254499
0.000762869
0.000625033
0.00200136
0.00155842
0.000436592
0.000251172
0.000264027
0.000161065
6.52171e-05
0.000836318
0.00105195
0.00132094
0.000826569
5.5444e-06
0.00110772
0.00244496
0.00204082
0.00134199
0.00215281
0.00254022
0.000813371
0.000542297
0.00194022
0.00161993
0.00036436
0.000110086
0.000234061
0.000143981
-3.44713e-05
0.000861983
0.00108841
0.00132276
0.000850532
8.99869e-05
0.00110816
0.00240835
0.00202829
0.00133105
0.00208906
0.00252851
0.00087017
0.000462209
0.00185725
0.00168083
0.0003176
-4.20771e-05
0.00018832
0.00014844
-0.000102864
0.000885825
0.0011284
0.00133004
0.000869851
0.000175065
0.00110839
0.00235343
0.00201914
0.00132189
0.00201948
0.00250793
0.000932898
0.000388181
0.00175248
0.00173616
0.000301114
-0.000199118
0.000119525
0.000169917
-0.000135524
0.000908029
0.00117029
0.00134418
0.000886735
0.000259402
0.00111018
0.00229376
0.00201201
0.00131535
0.00194437
0.00247674
0.00100019
0.000323788
0.00163407
0.00177957
0.000318574
-0.000350396
2.08656e-05
0.000198524
-0.000127952
0.000928948
0.0012125
0.0013663
0.000902491
0.000341023
0.00111511
0.00223045
0.00200466
0.00131234
0.0018651
0.00243365
0.00107021
0.000272134
0.00149066
0.00180431
0.000368453
-0.000483402
-0.000109583
0.000219269
-8.0297e-05
0.000948978
0.00125399
0.00139706
0.000918544
0.000417714
0.0011239
0.00216401
0.00199463
0.00131446
0.00178399
0.00237768
0.00114091
0.000236396
0.00133409
0.00180395
0.000444332
-0.000587251
-0.000266992
0.000215375
-1.71259e-06
0.000968684
0.00129387
0.00143601
0.000937524
0.000488381
0.00113603
0.00209515
0.00197985
0.00132273
0.00170411
0.00230908
0.0012096
0.000218257
0.00116994
0.00177473
0.000538067
-0.000653268
-0.000440549
0.000173415
9.1054e-05
0.000989001
0.00133115
0.0014818
0.000961363
0.000553001
0.00115106
0.00202431
0.00195775
0.00133623
0.00162967
0.00222997
0.00127127
0.00021787
0.00100465
0.00171489
0.000639749
-0.000675827
-0.000615861
8.76101e-05
0.00017791
0.00101102
0.0013649
0.00153279
0.000991785
0.000611553
0.00116938
0.00195307
0.00192302
0.0013501
0.0015651
0.00214534
0.00132405
0.000234733
0.000845575
0.00162491
0.000738602
-0.000652957
-0.000777852
-4.02295e-05
0.000238851
0.0010357
0.00139463
0.00158674
0.00103139
0.000663628
0.00118934
0.00188544
0.00187098
0.00136097
0.00151283
0.00205857
0.0013662
0.000267198
0.000698885
0.0015082
0.000823954
-0.000586938
-0.00091148
-0.000201313
0.000258136
0.00106397
0.00142013
0.0016412
0.00108149
0.000708462
0.00120383
0.00182434
0.0018177
0.00136946
0.00147044
0.00197076
0.00139628
0.000311697
0.000568307
0.0013696
0.000885736
-0.000486766
-0.00100327
-0.000380739
0.000227413
0.00109676
0.00144196
0.00169367
0.00114002
0.000746717
0.00121232
0.00177367
0.00176669
0.00137172
0.00143221
0.00188393
0.00141505
0.000364836
0.000456945
0.00121583
0.000916883
-0.000366259
-0.00104496
-0.000559521
0.000146959
0.00113442
0.00146099
0.00174128
0.00120599
0.000782762
0.00121561
0.00173245
0.00171871
0.00136536
0.00139528
0.00179971
0.00142412
0.000424262
0.000366873
0.00105499
0.000915309
-0.00023969
-0.00103591
-0.000718988
2.6373e-05
0.00117708
0.00147835
0.00178165
0.00127835
0.000820427
0.0012115
0.00169651
0.00167726
0.00135455
0.00135929
0.00171813
0.00142396
0.000487414
0.000300055
0.000894923
0.000882972
-0.000119841
-0.000983478
-0.000843433
-0.000118269
0.00122496
0.00149503
0.00181347
0.00135569
0.000861758
0.00119876
0.00166194
0.00164519
0.0013442
0.00132356
0.00163715
0.00141427
0.000552061
0.000256853
0.000742857
0.0008245
-1.67813e-05
-0.000899688
-0.000923689
-0.000268007
0.00127794
0.0015129
0.00183581
0.00143369
0.000908399
0.00117961
0.00162641
0.00162244
0.00133713
0.00128801
0.00155601
0.00139534
0.000616024
0.000236345
0.000604258
0.000745816
6.31562e-05
-0.000796911
-0.000957883
-0.000404169
0.00133546
0.00153396
0.00184796
0.00150759
0.000962878
0.00115757
0.00158673
0.00160736
0.00133617
0.00125589
0.00147626
0.00136601
0.00067576
0.000236776
0.000483801
0.000654335
0.000118591
-0.000686215
-0.000950084
-0.000511931
0.00139671
0.00155945
0.00185044
0.00157206
0.00102635
0.00113811
0.00154109
0.00159487
0.0013419
0.00123064
0.00139973
0.00132639
0.000726904
0.000254289
0.000386006
0.0005579
0.000151373
-0.000577052
-0.000909748
-0.00058445
0.0014604
0.00158955
0.00184497
0.00162567
0.00109833
0.00112658
0.00148967
0.00157802
0.00135344
0.00121437
0.00132916
0.0012799
0.000766837
0.000283966
0.00031209
0.000462412
0.000163598
-0.000475904
-0.000848022
-0.000622202
0.00152469
0.00162386
0.00183572
0.00166813
0.00117558
0.00112572
0.00143478
0.00155322
0.00136797
0.00120861
0.00126824
0.00122954
0.000795043
0.000319892
0.000259719
0.000373077
0.000158336
-0.000385468
-0.000771295
-0.000628284
0.00158805
0.00166233
0.00182764
0.00169883
0.00125283
0.00113724
0.00138158
0.00151957
0.0013795
0.00121239
0.00122069
0.00117795
0.000811734
0.000358657
0.000227415
0.000295598
0.000140724
-0.000307817
-0.000683763
-0.000608504
0.00164952
0.00170431
0.00182321
0.00171846
0.00132505
0.0011611
0.00133533
0.00147758
0.00138318
0.00122313
0.00118863
0.00113096
0.000818874
0.000397367
0.000212829
0.000232318
0.000115848
-0.000245285
-0.000590815
-0.000568428
0.00170871
0.00174865
0.00182371
0.00172949
0.00138852
0.00119503
0.00129983
0.0014302
0.00137759
0.00123523
0.00116967
0.00109465
0.000821305
0.000433123
0.000211999
0.000183119
8.79872e-05
-0.000197769
-0.000497996
-0.000509853
0.00176549
0.00179404
0.00182977
0.00173484
0.00144112
0.00123512
0.00127747
0.0013838
0.00136351
0.00124432
0.00116109
0.0010698
0.000824009
0.000466844
0.00022223
0.000149085
6.11625e-05
-0.000163399
-0.000410992
-0.000435548
0.00181968
0.00183895
0.0018414
0.00173801
0.00148238
0.00127665
0.00126836
0.00134426
0.00134242
0.00124819
0.00115922
0.00105429
0.000829367
0.000501142
0.000242329
0.000131017
3.96258e-05
-0.000139247
-0.000334185
-0.000352297
0.00187139
0.00188244
0.00185767
0.00174159
0.00151321
0.00131571
0.00127055
0.00131511
0.00131894
0.00124641
0.00116061
0.00104815
0.000837826
0.00053659
0.000271541
0.000127715
2.70554e-05
-0.000120412
-0.000268319
-0.000267204
0.00192069
0.00192386
0.00187689
0.00174705
0.00153598
0.00134977
0.00128075
0.00129736
0.00129902
0.00124132
0.00116162
0.00104972
0.000851318
0.000573102
0.000308999
0.000138113
2.47597e-05
-0.000102003
-0.000211759
-0.00018524
0.00196745
0.00196287
0.00189748
0.00175489
0.00155359
0.00137791
0.00129488
0.00128993
0.00128584
0.00123645
0.00116231
0.00105492
0.000870466
0.00061215
0.000353619
0.000162855
3.37713e-05
-8.05812e-05
-0.00016159
-0.000109419
0.0020114
0.00199927
0.00191819
0.00176478
0.00156839
0.00140065
0.00130987
0.00129172
0.00128021
0.00123572
0.00116641
0.00106244
0.000892784
0.00065456
0.000404072
0.000201374
5.63624e-05
-5.33549e-05
-0.000113734
-3.99611e-05
0.00205217
0.00203296
0.00193815
0.00177585
0.00158179
0.00141938
0.00133196
0.00129928
0.00128169
0.00124032
0.00117564
0.00107564
0.00091786
0.000699901
0.000460262
0.000251606
9.40199e-05
-1.73633e-05
-6.46328e-05
2.5008e-05
0.00208922
0.00206374
0.00195692
0.00178704
0.00159433
0.00143499
0.00134545
0.00130936
0.00128974
0.0012513
0.00119027
0.00109586
0.000949009
0.000748816
0.000522766
0.000312591
0.000146319
3.08015e-05
-1.01963e-05
9.01595e-05
0.00212198
0.00209125
0.0019743
0.00179748
0.00160576
0.00144873
0.0013581
0.00132063
0.00130257
0.0012691
0.00121209
0.0011231
0.000988301
0.000804013
0.000591854
0.000384427
0.000212185
9.25781e-05
5.35586e-05
0.000159368
0.00215006
0.00211489
0.00198965
0.00180673
0.00161558
0.00146105
0.00137052
0.00133322
0.0013184
0.00129207
0.00124199
0.00115929
0.00103642
0.000867992
0.000669286
0.000468137
0.000292458
0.000168368
0.000128482
0.000235625
0.00217315
0.00213428
0.00200211
0.00181419
0.00162349
0.00147162
0.00138241
0.00134703
0.00133751
0.00131942
0.00127908
0.00120647
0.00109544
0.000942625
0.000757928
0.000565163
0.000389236
0.000260005
0.000216862
0.000321579
0.00219029
0.00214886
0.00201143
0.00181909
0.00162867
0.00148009
0.00139332
0.00136074
0.00135883
0.00135116
0.00132228
0.00126439
0.00116882
0.00103202
0.00086261
0.000679429
0.000505735
0.000371664
0.000322403
0.000420864
0.00220108
0.0021575
0.00201691
0.00182071
0.00163049
0.0014854
0.00140262
0.00137436
0.00138056
0.0013854
0.0013709
0.001331
0.00125685
0.00114163
0.00099182
0.000820994
0.000650032
0.000510876
0.00045178
0.000539395
0.00220566
0.00216108
0.00201365
0.00181706
0.00162823
0.00148616
0.00140801
0.00138651
0.00140217
0.00141979
0.00142344
0.00140605
0.00135858
0.00127401
0.0011535
0.00100404
0.000842206
0.000695792
0.000617839
0.000684669
0.00220093
0.00215282
0.0020092
0.00181186
0.00162149
0.00148183
0.00140811
0.00139379
0.00142136
0.00145288
0.00147726
0.00148777
0.0014717
0.00142595
0.00134825
0.00124164
0.00111236
0.000977253
0.000878464
0.000903637
0.00218582
0.00213946
0.00199939
0.0018005
0.00160895
0.00147209
0.00140174
0.00139091
0.0014294
0.00148168
0.00153416
0.00158114
0.00159377
0.00158157
0.00154531
0.0014814
0.00140571
0.00132985
0.00128823
0.00131865
0.00216646
0.00212236
0.00197547
0.00177604
0.00159003
0.00145793
0.00138856
0.00137395
0.00140679
0.00147096
0.00157833
0.00172676
0.00187188
0.00198323
0.0020297
0.00197548
0.00182761
0.00163333
0.00146839
0.00140612
0.00213374
0.00208979
0.00194305
0.00175007
0.00157359
0.00144522
0.00137184
0.00134573
0.00135461
0.00135273
0.00134851
0.00142341
0.00165659
0.00202504
0.00240791
0.0027336
0.00299631
0.00322265
0.00341036
0.00352192
0.00208194
0.0020353
0.00189894
0.00172257
0.00156726
0.00145793
0.00138655
0.00133754
0.00133948
0.00146048
0.00174818
0.00211264
0.00239603
0.00257564
0.00267787
0.00274184
0.00280253
0.00288362
0.00298354
0.00304859
0.00201579
0.00198151
0.00183845
0.00165749
0.00148976
0.00136788
0.00134672
0.00147127
0.00168197
0.00185177
0.00195107
0.0020078
0.00211554
0.00229988
0.00254758
0.00285235
0.00318992
0.00352345
0.00381085
0.00397955
0.00189762
0.00189024
0.00182932
0.00174714
0.00168914
0.00167889
0.00170966
0.00176322
0.00184704
0.00196285
0.0021163
0.0022997
0.00243331
0.00251191
0.00253054
0.0024531
0.00230011
0.00208019
0.00183338
0.00162704
0.00174046
0.00172427
0.00175627
0.0017845
0.0017844
0.0017544
0.00173251
0.00173782
0.00179375
0.00190282
0.00201262
0.00214971
0.00233061
0.00252117
0.00276109
0.00304609
0.00335145
0.00363882
0.00385505
0.00393787
0.00164943
0.00164788
0.00171276
0.0017875
0.00184784
0.00190311
0.00197561
0.00204537
0.00208699
0.00215968
0.00224956
0.00235031
0.00248157
0.00260379
0.00271485
0.00282855
0.00294755
0.00305795
0.00311904
0.00307845
0.00725499
0.00343983
-0.00290659
-0.00762777
-0.00833179
-0.00682384
-0.00508162
-0.00369727
-0.00266339
-0.00184408
-0.00118535
-0.000736582
-0.000476281
-0.000223561
0.000193415
0.000725426
0.0011933
0.00152971
0.00177016
0.00197841
0.00226468
0.00265151
0.00302256
0.00333895
0.00369335
0.00413531
0.0046123
0.00504792
0.00541775
0.00577179
0.00615533
0.00653951
0.00687458
0.00717364
0.00748816
0.0078344
0.00819497
0.00857354
0.00899103
0.00943114
0.00985344
0.0102626
0.0106919
0.0111377
0.0115533
0.0119394
0.0123522
0.0128027
0.0132473
0.0136852
0.0141617
0.0146702
0.015158
0.0156507
0.0161775
0.0166981
0.0172099
0.0177441
0.0182854
0.0188331
0.0194028
0.019985
0.020575
0.021175
0.0217801
0.0223977
0.0230371
0.0236916
0.0243588
0.0250337
0.025716
0.026411
0.0271281
0.0278643
0.0286158
0.0293793
0.0301535
0.0309412
0.0317461
0.0325714
0.0334123
0.0342695
0.0351387
0.0360259
0.0369253
0.037847
0.0387825
0.0397409
0.0407094
0.0416998
0.0427018
0.0437272
0.0447619
0.0458218
0.046882
0.0479632
0.0490407
0.0500973
0.0510499
0.0519675
0.00679833
0.00332786
-0.00280651
-0.00748663
-0.00825595
-0.00678916
-0.00506002
-0.00368143
-0.00265104
-0.00183394
-0.00117642
-0.00072862
-0.000469627
-0.000218332
0.000197674
0.000729296
0.00119696
0.0015331
0.00177322
0.00198101
0.00226687
0.00265362
0.00302464
0.00334083
0.00369499
0.00413683
0.00461377
0.00504935
0.00541908
0.00577297
0.00615644
0.00654062
0.00687566
0.00717464
0.0074891
0.00783529
0.00819583
0.00857434
0.00899179
0.00943188
0.00985416
0.0102633
0.0106925
0.0111383
0.0115539
0.01194
0.0123527
0.0128032
0.0132478
0.0136856
0.0141622
0.0146706
0.0151584
0.0156511
0.0161779
0.0166985
0.0172103
0.0177444
0.0182857
0.0188334
0.0194031
0.0199853
0.0205753
0.0211753
0.0217803
0.0223979
0.0230374
0.0236918
0.024359
0.0250339
0.0257162
0.0264111
0.0271283
0.0278645
0.0286159
0.0293795
0.0301537
0.0309413
0.0317463
0.0325716
0.0334124
0.0342697
0.0351389
0.036026
0.0369254
0.0378471
0.0387826
0.039741
0.0407095
0.0416999
0.0427019
0.0437273
0.0447619
0.0458219
0.0468821
0.0479633
0.0490408
0.0500973
0.0510499
0.0519675
0.00627563
0.00316892
-0.00262234
-0.00722194
-0.00811989
-0.00673886
-0.00503524
-0.00366381
-0.00263685
-0.00182247
-0.00116717
-0.0007207
-0.000462462
-0.00021201
0.000203001
0.000733722
0.00120067
0.00153634
0.00177617
0.00198355
0.00226899
0.00265556
0.00302647
0.00334245
0.00369647
0.00413828
0.0046152
0.00505071
0.00542029
0.00577404
0.00615746
0.00654164
0.00687663
0.00717551
0.00748989
0.00783605
0.00819655
0.00857501
0.00899245
0.00943254
0.0098548
0.0102639
0.0106931
0.0111388
0.0115544
0.0119405
0.0123531
0.0128036
0.0132482
0.013686
0.0141625
0.0146709
0.0151588
0.0156514
0.0161782
0.0166988
0.0172106
0.0177447
0.018286
0.0188336
0.0194034
0.0199855
0.0205755
0.0211755
0.0217805
0.0223981
0.0230376
0.0236919
0.0243592
0.025034
0.0257163
0.0264113
0.0271284
0.0278646
0.0286161
0.0293796
0.0301538
0.0309415
0.0317464
0.0325717
0.0334125
0.0342698
0.035139
0.0360261
0.0369255
0.0378472
0.0387827
0.0397411
0.0407096
0.0417
0.042702
0.0437274
0.044762
0.045822
0.0468822
0.0479633
0.0490409
0.0500974
0.05105
0.0519675
0.00577314
0.00301866
-0.00237497
-0.00686988
-0.00792116
-0.00666172
-0.00499743
-0.00363784
-0.00261641
-0.00180666
-0.00115594
-0.000712073
-0.000453813
-0.000202767
0.000211451
0.00074018
0.00120534
0.00154034
0.00178024
0.00198743
0.00227213
0.00265788
0.00302831
0.00334418
0.00369829
0.00414008
0.00461686
0.00505224
0.0054217
0.00577533
0.00615866
0.00654277
0.00687766
0.00717642
0.00749071
0.00783682
0.00819727
0.00857571
0.00899315
0.00943326
0.00985547
0.0102645
0.0106937
0.0111395
0.011555
0.011941
0.0123536
0.0128041
0.0132487
0.0136864
0.0141629
0.0146713
0.0151592
0.0156517
0.0161785
0.0166991
0.0172109
0.017745
0.0182863
0.0188339
0.0194036
0.0199857
0.0205758
0.0211757
0.0217807
0.0223983
0.0230377
0.0236921
0.0243594
0.0250342
0.0257165
0.0264115
0.0271286
0.0278648
0.0286162
0.0293798
0.0301539
0.0309416
0.0317465
0.0325718
0.0334127
0.0342699
0.0351391
0.0360262
0.0369256
0.0378473
0.0387828
0.0397412
0.0407097
0.0417001
0.0427021
0.0437274
0.0447621
0.0458221
0.0468822
0.0479634
0.049041
0.0500975
0.0510502
0.0519676
0.0052991
0.00287739
-0.00210862
-0.00648893
-0.00769472
-0.00657048
-0.00495205
-0.00360526
-0.0025896
-0.00178568
-0.00114185
-0.000702155
-0.000443081
-0.000189645
0.000224055
0.000749265
0.00121107
0.00154516
0.0017861
0.00199401
0.00227764
0.00266133
0.00303045
0.0033463
0.00370081
0.00414251
0.00461882
0.00505393
0.00542344
0.00577709
0.00616028
0.0065442
0.00687892
0.00717753
0.00749167
0.00783764
0.00819804
0.00857649
0.00899396
0.00943405
0.00985623
0.0102652
0.0106944
0.0111402
0.0115557
0.0119416
0.0123541
0.0128046
0.0132492
0.0136869
0.0141633
0.0146718
0.0151596
0.0156521
0.0161789
0.0166995
0.0172112
0.0177453
0.0182866
0.0188342
0.0194039
0.019986
0.020576
0.021176
0.021781
0.0223985
0.023038
0.0236923
0.0243596
0.0250344
0.0257167
0.0264116
0.0271287
0.0278649
0.0286164
0.0293799
0.0301541
0.0309417
0.0317467
0.0325719
0.0334128
0.03427
0.0351392
0.0360263
0.0369257
0.0378474
0.0387829
0.0397413
0.0407098
0.0417002
0.0427022
0.0437275
0.0447622
0.0458221
0.0468823
0.0479635
0.0490411
0.0500977
0.0510504
0.0519678
0.00485236
0.00272418
-0.00185363
-0.00610238
-0.00745403
-0.00647272
-0.0049046
-0.00356967
-0.00255856
-0.00176076
-0.0011253
-0.000690924
-0.000430459
-0.000173186
0.000240267
0.000760599
0.00121751
0.00155042
0.0017936
0.0020037
0.00228636
0.0026667
0.0030334
0.00334919
0.00370439
0.0041458
0.00462107
0.00505564
0.00542539
0.00577934
0.00616241
0.00654602
0.00688059
0.00717909
0.00749295
0.00783861
0.00819889
0.0085774
0.00899487
0.00943489
0.00985706
0.0102661
0.0106953
0.011141
0.0115564
0.0119423
0.0123548
0.0128052
0.0132497
0.0136874
0.0141638
0.0146723
0.0151601
0.0156525
0.0161794
0.0166999
0.0172116
0.0177457
0.0182869
0.0188345
0.0194042
0.0199863
0.0205763
0.0211763
0.0217812
0.0223987
0.0230382
0.0236926
0.0243598
0.0250346
0.0257169
0.0264118
0.0271289
0.0278651
0.0286165
0.0293801
0.0301542
0.0309419
0.0317468
0.0325721
0.0334129
0.0342701
0.0351393
0.0360264
0.0369259
0.0378475
0.038783
0.0397414
0.0407099
0.0417003
0.0427023
0.0437276
0.0447623
0.0458222
0.0468824
0.0479636
0.0490412
0.0500979
0.0510508
0.051968
0.00442949
0.00254764
-0.00161963
-0.00571269
-0.00719818
-0.00636782
-0.00485578
-0.00353219
-0.00252427
-0.00173263
-0.00110655
-0.000678389
-0.000416462
-0.000154625
0.000258743
0.000773298
0.00122416
0.0015556
0.00180206
0.00201592
0.00229812
0.00267429
0.00303772
0.00335332
0.00370933
0.0041501
0.00462364
0.00505726
0.00542739
0.00578191
0.00616485
0.00654815
0.00688276
0.00718135
0.00749483
0.0078399
0.00819995
0.00857852
0.00899591
0.00943572
0.0098579
0.0102672
0.0106964
0.011142
0.0115573
0.0119432
0.0123556
0.0128059
0.0132504
0.0136881
0.0141645
0.0146729
0.0151606
0.0156531
0.0161799
0.0167004
0.017212
0.0177461
0.0182873
0.0188349
0.0194046
0.0199867
0.0205767
0.0211766
0.0217815
0.022399
0.0230385
0.0236928
0.0243601
0.0250349
0.0257171
0.026412
0.0271291
0.0278653
0.0286167
0.0293803
0.0301544
0.0309421
0.031747
0.0325722
0.0334131
0.0342703
0.0351395
0.0360266
0.036926
0.0378476
0.0387832
0.0397415
0.04071
0.0417004
0.0427024
0.0437277
0.0447624
0.0458223
0.0468825
0.0479637
0.0490414
0.0500981
0.0510512
0.0519684
0.00402913
0.00235057
-0.00140491
-0.00531679
-0.00692349
-0.00625331
-0.00480533
-0.00349353
-0.00248733
-0.0017015
-0.00108553
-0.000664524
-0.00040149
-0.000134852
0.000278563
0.000786897
0.00123098
0.00156059
0.00181084
0.00202953
0.00231191
0.00268374
0.00304357
0.00335899
0.00371578
0.00415547
0.00462661
0.00505887
0.00542941
0.00578457
0.00616728
0.00655022
0.00688522
0.00718436
0.00749755
0.00784177
0.00820142
0.00858002
0.00899718
0.00943653
0.00985868
0.0102683
0.0106976
0.011143
0.0115584
0.0119444
0.0123567
0.0128068
0.0132511
0.0136889
0.0141652
0.0146735
0.0151613
0.0156537
0.0161805
0.016701
0.0172126
0.0177467
0.0182878
0.0188353
0.019405
0.0199871
0.0205771
0.021177
0.0217819
0.0223994
0.0230388
0.0236931
0.0243604
0.0250352
0.0257174
0.0264123
0.0271293
0.0278655
0.028617
0.0293805
0.0301546
0.0309422
0.0317472
0.0325724
0.0334133
0.0342705
0.0351396
0.0360267
0.0369261
0.0378478
0.0387833
0.0397417
0.0407102
0.0417005
0.0427025
0.0437278
0.0447625
0.0458225
0.0468827
0.0479638
0.0490416
0.0500984
0.0510519
0.0519689
0.00365462
0.00214205
-0.00120821
-0.00491547
-0.00662895
-0.00612777
-0.00475338
-0.00345464
-0.00244822
-0.00166727
-0.00106203
-0.000649291
-0.000385759
-0.000114258
0.000299393
0.000801357
0.00123822
0.00156564
0.00181975
0.00204374
0.00232674
0.00269437
0.0030507
0.00336608
0.00372361
0.00416181
0.00463
0.00506059
0.00543151
0.00578726
0.00616947
0.00655188
0.00688758
0.00718785
0.00750107
0.00784441
0.00820351
0.00858207
0.00899884
0.00943745
0.00985941
0.0102694
0.0106989
0.0111441
0.0115596
0.0119459
0.0123582
0.0128079
0.0132521
0.0136899
0.0141661
0.0146742
0.015162
0.0156545
0.0161812
0.0167017
0.0172133
0.0177473
0.0182884
0.0188359
0.0194056
0.0199876
0.0205776
0.0211775
0.0217823
0.0223998
0.0230392
0.0236935
0.0243607
0.0250355
0.0257177
0.0264125
0.0271296
0.0278658
0.0286172
0.0293808
0.0301548
0.0309425
0.0317474
0.0325726
0.0334135
0.0342707
0.0351398
0.0360269
0.0369263
0.0378479
0.0387835
0.0397418
0.0407103
0.0417007
0.0427027
0.043728
0.0447626
0.0458226
0.0468828
0.047964
0.0490418
0.0500989
0.0510527
0.0519696
0.00331068
0.00192939
-0.00103281
-0.00451334
-0.00631479
-0.00598945
-0.00469952
-0.00341608
-0.00240724
-0.00162974
-0.00103575
-0.00063256
-0.000369298
-9.29157e-05
0.000321219
0.00081677
0.00124606
0.00157095
0.00182882
0.00205827
0.00234212
0.00270572
0.00305872
0.00337428
0.00373257
0.00416896
0.00463378
0.00506247
0.00543378
0.00579006
0.00617144
0.00655302
0.00688953
0.00719142
0.00750516
0.00784779
0.00820632
0.00858475
0.00900097
0.0094386
0.00986021
0.0102705
0.0107001
0.011145
0.0115607
0.0119476
0.01236
0.0128092
0.0132533
0.0136912
0.0141672
0.014675
0.0151628
0.0156554
0.0161821
0.0167024
0.0172141
0.0177481
0.0182891
0.0188365
0.0194062
0.0199883
0.0205782
0.0211781
0.0217829
0.0224003
0.0230396
0.023694
0.0243612
0.0250359
0.0257181
0.0264129
0.0271299
0.0278661
0.0286175
0.029381
0.0301551
0.0309427
0.0317476
0.0325729
0.0334137
0.0342709
0.03514
0.0360271
0.0369265
0.0378481
0.0387836
0.039742
0.0407105
0.0417008
0.0427028
0.0437281
0.0447628
0.0458228
0.046883
0.0479642
0.0490421
0.0500994
0.0510538
0.0519705
0.00299973
0.00171692
-0.00088319
-0.00411526
-0.00598089
-0.00583564
-0.0046425
-0.00337811
-0.00236483
-0.00158885
-0.00100641
-0.000614144
-0.000352045
-7.0804e-05
0.000344072
0.000833184
0.00125458
0.00157663
0.00183818
0.00207317
0.00235796
0.00271757
0.00306736
0.00338332
0.00374245
0.00417683
0.00463793
0.00506452
0.00543623
0.00579301
0.00617333
0.00655376
0.00689101
0.00719483
0.0075095
0.00785172
0.00820978
0.00858805
0.00900358
0.00944007
0.00986118
0.0102717
0.0107012
0.0111457
0.0115617
0.0119494
0.012362
0.0128108
0.0132548