/*--------------------------------*- C++ -*----------------------------------*\
| =========                 |                                                 |
| \\      /  F ield         | OpenFOAM: The Open Source CFD Toolbox           |
|  \\    /   O peration     | Version:  2506                                  |
|   \\  /    A nd           | Website:  www.openfoam.com                      |
|    \\/     M anipulation  |                                                 |
\*---------------------------------------------------------------------------*/
FoamFile
{
    version     2.0;
    format      ascii;
    arch        "LSB;label=32;scalar=64";
    class       volVectorField;
    location    "3.45";
    object      U;
}
// * * * * * * * * * * * * * * * * * * * * * * * * * * * * * * * * * * * * * //

dimensions      [0 1 -1 0 0 0 0];

internalField   nonuniform List<vector> 
9600
(
(0.777395 -0.00352266 0)
(1.24731 0.00361651 0)
(0.844324 0.00951159 0)
(1.08819 -0.00430906 0)
(0.759498 -0.0144638 0)
(1.25885 -0.0065371 0)
(0.863424 -0.000246964 0)
(1.13892 0.0142343 0)
(0.88381 0.00624292 0)
(1.0757 0.0029543 0)
(0.846965 -0.00284246 0)
(1.10344 -0.0123182 0)
(0.845636 -0.00282938 0)
(1.1287 -0.00704308 0)
(0.82985 -0.0068256 0)
(1.14676 -0.00406791 0)
(0.841098 -0.00311561 0)
(1.14165 0.00263859 0)
(0.846145 0.0048058 0)
(1.12451 0.0101358 0)
(0.789141 -0.00382511 0)
(1.23631 0.00329083 0)
(0.860295 0.0104571 0)
(1.07456 -0.00328211 0)
(0.778652 -0.0166233 0)
(1.23991 -0.00740063 0)
(0.879583 0.000925941 0)
(1.12404 0.0143032 0)
(0.908087 0.00687163 0)
(1.05726 0.00372617 0)
(0.882945 -0.00349453 0)
(1.07339 -0.0119932 0)
(0.883668 -0.00374117 0)
(1.08838 -0.00644239 0)
(0.883051 -0.00756803 0)
(1.09221 -0.00425143 0)
(0.91264 -0.00287663 0)
(1.06374 0.00177067 0)
(0.949363 0.00663023 0)
(1.00469 0.00827338 0)
(0.812086 -0.00413224 0)
(1.21148 0.00303166 0)
(0.890061 0.0116033 0)
(1.05644 -0.0025007 0)
(0.813064 -0.0182944 0)
(1.20309 -0.00809583 0)
(0.91283 0.00194224 0)
(1.09366 0.0142457 0)
(0.942122 0.00759661 0)
(1.0314 0.00409509 0)
(0.926222 -0.00383142 0)
(1.03615 -0.0118908 0)
(0.931241 -0.00412524 0)
(1.04271 -0.00639402 0)
(0.942624 -0.00765265 0)
(1.03656 -0.00489549 0)
(0.971655 -0.00223566 0)
(1.01304 0.00112797 0)
(0.990369 0.00760202 0)
(0.985044 0.00873747 0)
(0.843957 -0.00436742 0)
(1.17421 0.00269199 0)
(0.925841 0.0125831 0)
(1.03882 -0.00175447 0)
(0.85617 -0.0196333 0)
(1.15338 -0.0088943 0)
(0.952553 0.00289274 0)
(1.05907 0.0141204 0)
(0.971425 0.00819733 0)
(1.01071 0.00427023 0)
(0.959357 -0.00384496 0)
(1.00884 -0.0119274 0)
(0.964397 -0.00425661 0)
(1.01361 -0.0066475 0)
(0.97763 -0.00746226 0)
(1.00797 -0.00551036 0)
(0.994443 -0.0018037 0)
(1.00054 0.000990494 0)
(0.99606 0.00791755 0)
(0.991096 0.00981854 0)
(0.880294 -0.00453442 0)
(1.12961 0.00222438 0)
(0.959462 0.013427 0)
(1.02587 -0.00105798 0)
(0.898433 -0.0206036 0)
(1.1005 -0.00980882 0)
(0.985823 0.00369821 0)
(1.03232 0.0140801 0)
(0.99074 0.00866491 0)
(1.00111 0.00440481 0)
(0.979427 -0.00374275 0)
(0.99676 -0.0119725 0)
(0.980258 -0.00437321 0)
(1.00166 -0.00692065 0)
(0.991649 -0.00729491 0)
(0.998946 -0.00589806 0)
(0.998772 -0.00162719 0)
(0.999082 0.00100564 0)
(0.995933 0.00806959 0)
(0.993125 0.0107051 0)
(0.915651 -0.00462212 0)
(1.08494 0.00173039 0)
(0.985154 0.014073 0)
(1.01964 -0.000453448 0)
(0.932963 -0.0211392 0)
(1.05425 -0.0106949 0)
(1.00557 0.00426848 0)
(1.0179 0.0141842 0)
(1.00215 0.00898735 0)
(1.0007 0.00450929 0)
(0.991172 -0.00358805 0)
(0.995231 -0.0119385 0)
(0.986458 -0.00447757 0)
(0.99843 -0.00716767 0)
(0.996253 -0.0071976 0)
(0.997024 -0.00607658 0)
(0.998277 -0.00154689 0)
(0.997298 0.00104852 0)
(0.994716 0.00819231 0)
(0.991956 0.0114017 0)
(0.945454 -0.00462345 0)
(1.047 0.00127897 0)
(1.00087 0.0144338 0)
(1.01916 5.54525e-05 0)
(0.957869 -0.0212603 0)
(1.02041 -0.011461 0)
(1.01208 0.00451986 0)
(1.01279 0.0143391 0)
(1.00939 0.00917643 0)
(1.00476 0.00459509 0)
(0.998996 -0.00338626 0)
(0.998112 -0.0118095 0)
(0.989359 -0.00452148 0)
(0.998028 -0.00741635 0)
(0.997665 -0.00710803 0)
(0.996669 -0.00613332 0)
(0.997185 -0.00147729 0)
(0.994923 0.00122866 0)
(0.992392 0.00826366 0)
(0.989709 0.0120106 0)
(0.967404 -0.00455281 0)
(1.01967 0.000901356 0)
(1.00794 0.0145015 0)
(1.02154 0.000465152 0)
(0.974777 -0.0210532 0)
(0.999553 -0.0120657 0)
(1.00985 0.00446432 0)
(1.01161 0.0144164 0)
(1.01435 0.00926342 0)
(1.00959 0.00467072 0)
(1.00474 -0.00314401 0)
(1.00171 -0.0115925 0)
(0.991582 -0.00449364 0)
(0.998199 -0.00763437 0)
(0.997904 -0.00700794 0)
(0.99632 -0.00613823 0)
(0.996117 -0.00138547 0)
(0.992913 0.00155783 0)
(0.989923 0.00826911 0)
(0.987407 0.01257 0)
(0.981668 -0.00443613 0)
(1.00306 0.000609649 0)
(1.00948 0.0143348 0)
(1.02397 0.000781204 0)
(0.986229 -0.0206222 0)
(0.988859 -0.0124904 0)
(1.00389 0.00419825 0)
(1.01071 0.0143497 0)
(1.01726 0.00926846 0)
(1.01318 0.00472804 0)
(1.00878 -0.00286702 0)
(1.00458 -0.0113073 0)
(0.993689 -0.00440177 0)
(0.99839 -0.00778746 0)
(0.997611 -0.00691456 0)
(0.995654 -0.00608457 0)
(0.995035 -0.00128083 0)
(0.991452 0.00197197 0)
(0.988161 0.00824371 0)
(0.985845 0.013096 0)
(0.990003 -0.00429761 0)
(0.994659 0.0003955 0)
(1.00849 0.0140164 0)
(1.02496 0.00100312 0)
(0.994172 -0.0200595 0)
(0.984652 -0.0127429 0)
(0.997686 0.00383275 0)
(1.0089 0.0141418 0)
(1.01809 0.0092009 0)
(1.01481 0.0047543 0)
(1.01118 -0.00256956 0)
(1.0064 -0.0109815 0)
(0.995634 -0.00426257 0)
(0.998573 -0.00786556 0)
(0.997132 -0.00682405 0)
(0.994753 -0.00595084 0)
(0.993942 -0.00120156 0)
(0.990414 0.00242638 0)
(0.987315 0.00822075 0)
(0.985399 0.0135541 0)
(0.994563 -0.00415405 0)
(0.991265 0.00023859 0)
(1.00683 0.0136236 0)
(1.02434 0.00113489 0)
(0.999733 -0.0194352 0)
(0.98395 -0.0128439 0)
(0.992813 0.00345209 0)
(1.00642 0.013829 0)
(1.01724 0.00908002 0)
(1.01466 0.0047437 0)
(1.01216 -0.00227154 0)
(1.0073 -0.0106418 0)
(0.997304 -0.00409918 0)
(0.998806 -0.00786286 0)
(0.996699 -0.00672624 0)
(0.993833 -0.00574046 0)
(0.992932 -0.0011679 0)
(0.989685 0.0028964 0)
(0.987196 0.00819196 0)
(0.985948 0.0138788 0)
(0.997066 -0.00401496 0)
(0.990356 0.000120915 0)
(1.00525 0.01321 0)
(1.02267 0.00119613 0)
(1.00354 -0.0187966 0)
(0.984834 -0.0128254 0)
(0.989561 0.00310317 0)
(1.00379 0.0134549 0)
(1.01543 0.00892534 0)
(1.01335 0.00469376 0)
(1.01211 -0.00198936 0)
(1.00754 -0.0103066 0)
(0.998613 -0.00393786 0)
(0.999089 -0.00777648 0)
(0.996435 -0.00662455 0)
(0.993085 -0.00546315 0)
(0.992123 -0.00116767 0)
(0.989214 0.00334799 0)
(0.9875 0.00814701 0)
(0.987067 0.0140239 0)
(0.998543 -0.00388422 0)
(0.990444 3.19414e-05 0)
(1.00392 0.0128019 0)
(1.02059 0.00119983 0)
(1.00602 -0.0181704 0)
(0.986231 -0.0127189 0)
(0.987612 0.00280399 0)
(1.00139 0.0130568 0)
(1.01331 0.0087447 0)
(1.01157 0.00460363 0)
(1.01148 -0.0017341 0)
(1.0074 -0.00998522 0)
(0.999532 -0.00379778 0)
(0.999361 -0.00761547 0)
(0.996349 -0.0065257 0)
(0.992603 -0.00512483 0)
(0.991595 -0.00117567 0)
(0.988971 0.00374817 0)
(0.987969 0.00810246 0)
(0.988299 0.0139824 0)
(0.999486 -0.00376218 0)
(0.990836 -3.52796e-05 0)
(1.00286 0.0124091 0)
(1.01858 0.00116185 0)
(1.00751 -0.0175647 0)
(0.987617 -0.0125476 0)
(0.986542 0.00255812 0)
(0.999375 0.0126534 0)
(1.01134 0.00854824 0)
(1.00983 0.00448451 0)
(1.01063 -0.00151078 0)
(1.00713 -0.00967667 0)
(1.00011 -0.00368732 0)
(0.999548 -0.00739242 0)
(0.996382 -0.00643418 0)
(0.992368 -0.00473504 0)
(0.991355 -0.00118719 0)
(0.98892 0.00407456 0)
(0.988451 0.00808654 0)
(0.98935 0.0137786 0)
(1.0001 -0.00364761 0)
(0.991269 -8.60572e-05 0)
(1.0021 0.0120317 0)
(1.01689 0.00109436 0)
(1.0083 -0.0169798 0)
(0.988777 -0.0123316 0)
(0.986032 0.00235821 0)
(0.997813 0.0122515 0)
(1.00976 0.00833906 0)
(1.0084 0.00434467 0)
(1.00981 -0.00131947 0)
(1.00686 -0.00937298 0)
(1.00044 -0.00360767 0)
(0.999614 -0.0071191 0)
(0.996464 -0.00635134 0)
(0.992299 -0.00430917 0)
(0.991348 -0.00119222 0)
(0.989016 0.00431717 0)
(0.98889 0.00811734 0)
(0.990138 0.0134571 0)
(1.0005 -0.00353847 0)
(0.991658 -0.000125076 0)
(1.00161 0.0116652 0)
(1.01556 0.00100762 0)
(1.00864 -0.0164117 0)
(0.989666 -0.0120854 0)
(0.985891 0.00219329 0)
(0.99671 0.0118531 0)
(1.00861 0.00811382 0)
(1.00736 0.00418905 0)
(1.00914 -0.00115549 0)
(1.00665 -0.00906561 0)
(1.00063 -0.00355585 0)
(0.999571 -0.00680413 0)
(0.99655 -0.00627591 0)
(0.992316 -0.00386771 0)
(0.991492 -0.00115951 0)
(0.989223 0.00447654 0)
(0.989288 0.00819353 0)
(0.990725 0.0130672 0)
(1.00073 -0.00343285 0)
(0.991989 -0.000156436 0)
(1.00135 0.0113045 0)
(1.01457 0.000910603 0)
(1.00869 -0.015855 0)
(0.990321 -0.0118181 0)
(0.986004 0.0020515 0)
(0.996029 0.0114574 0)
(1.00787 0.00787034 0)
(1.00667 0.00402607 0)
(1.00861 -0.00101334 0)
(1.00651 -0.00874734 0)
(1.00075 -0.00352784 0)
(0.999458 -0.00645512 0)
(0.996626 -0.00619921 0)
(0.992377 -0.00343047 0)
(0.991718 -0.00107583 0)
(0.989513 0.00456224 0)
(0.989667 0.00830023 0)
(0.991207 0.0126498 0)
(1.00086 -0.00332918 0)
(0.992274 -0.000182396 0)
(1.00124 0.0109453 0)
(1.01382 0.000809601 0)
(1.00859 -0.0153049 0)
(0.990811 -0.0115349 0)
(0.986287 0.00192091 0)
(0.995691 0.0110628 0)
(1.00743 0.00760984 0)
(1.00623 0.00386215 0)
(1.0082 -0.00088871 0)
(1.00642 -0.00841737 0)
(1.00084 -0.003512 0)
(0.999315 -0.00608408 0)
(0.996695 -0.00611164 0)
(0.992474 -0.00301393 0)
(0.991983 -0.000936779 0)
(0.989871 0.00458764 0)
(0.990048 0.00841596 0)
(0.991659 0.0122331 0)
(1.00091 -0.00322639 0)
(0.992535 -0.000207262 0)
(1.00121 0.0105833 0)
(1.01322 0.000708548 0)
(1.0084 -0.0147598 0)
(0.991215 -0.0112381 0)
(0.98667 0.00179323 0)
(0.995599 0.0106671 0)
(1.00716 0.00733274 0)
(1.00595 0.00370319 0)
(1.00785 -0.000778699 0)
(1.00636 -0.00807438 0)
(1.00093 -0.00350229 0)
(0.999171 -0.00569533 0)
(0.996766 -0.00600731 0)
(0.992614 -0.00263715 0)
(0.99227 -0.000737046 0)
(0.990291 0.00456383 0)
(0.990441 0.00852166 0)
(0.992112 0.011843 0)
(1.00091 -0.00312407 0)
(0.992799 -0.000230914 0)
(1.0012 0.010215 0)
(1.01273 0.000611054 0)
(1.00817 -0.01422 0)
(0.991592 -0.0109283 0)
(0.987101 0.00166151 0)
(0.995658 0.0102732 0)
(1.00696 0.00703954 0)
(1.00575 0.0035479 0)
(1.0075 -0.000675045 0)
(1.00631 -0.00772073 0)
(1.001 -0.00349567 0)
(0.999042 -0.00529748 0)
(0.996842 -0.00587701 0)
(0.992804 -0.00229488 0)
(0.99257 -0.000491194 0)
(0.990766 0.00450259 0)
(0.990847 0.00860316 0)
(0.99257 0.0115001 0)
(1.00087 -0.00302224 0)
(0.993084 -0.000250576 0)
(1.00118 0.00983919 0)
(1.0123 0.000519461 0)
(1.00791 -0.0136849 0)
(0.991981 -0.0106061 0)
(0.987549 0.00152189 0)
(0.995803 0.00988294 0)
(1.00677 0.00673325 0)
(1.00558 0.00339618 0)
(1.00713 -0.000574359 0)
(1.00626 -0.00736124 0)
(1.00105 -0.0034824 0)
(0.998934 -0.00490673 0)
(0.996922 -0.00571798 0)
(0.993045 -0.00198325 0)
(0.992877 -0.000214189 0)
(0.991289 0.00441386 0)
(0.991266 0.00864452 0)
(0.993021 0.0112126 0)
(1.0008 -0.00292133 0)
(0.993399 -0.00026618 0)
(1.00112 0.00945413 0)
(1.0119 0.000435713 0)
(1.00762 -0.0131585 0)
(0.992395 -0.010269 0)
(0.987996 0.00137312 0)
(0.99599 0.00949498 0)
(1.00655 0.00641727 0)
(1.00542 0.00325028 0)
(1.00672 -0.000476842 0)
(1.00622 -0.0070018 0)
(1.0011 -0.00345785 0)
(0.998842 -0.00452102 0)
(0.997002 -0.00553037 0)
(0.993331 -0.00170608 0)
(0.993185 8.91837e-05 0)
(0.991847 0.00430871 0)
(0.991697 0.00863466 0)
(0.993456 0.0109782 0)
(1.00069 -0.00282187 0)
(0.993742 -0.000276234 0)
(1.00103 0.00905867 0)
(1.01152 0.000362145 0)
(1.00731 -0.0126432 0)
(0.992831 -0.009918 0)
(0.988438 0.00121667 0)
(0.996197 0.00910868 0)
(1.00631 0.00609801 0)
(1.00526 0.0031015 0)
(1.00629 -0.000373225 0)
(1.00616 -0.00664861 0)
(1.00114 -0.00342215 0)
(0.998763 -0.00413546 0)
(0.997082 -0.00531356 0)
(0.993654 -0.00145794 0)
(0.993488 0.000410753 0)
(0.992426 0.00419686 0)
(0.992141 0.00856931 0)
(0.993867 0.0107841 0)
(1.00057 -0.00272409 0)
(0.994102 -0.000279969 0)
(1.00093 0.00865178 0)
(1.01115 0.00029936 0)
(1.00698 -0.012139 0)
(0.993278 -0.00955564 0)
(0.988879 0.00105449 0)
(0.99641 0.00872362 0)
(1.00605 0.00577842 0)
(1.00509 0.00294867 0)
(1.00584 -0.000260303 0)
(1.00609 -0.00629853 0)
(1.00118 -0.00337849 0)
(0.99869 -0.00375473 0)
(0.997158 -0.00507165 0)
(0.994005 -0.00124481 0)
(0.993785 0.000744005 0)
(0.993008 0.0040848 0)
(0.9926 0.00844557 0)
(0.994248 0.0106162 0)
(1.00045 -0.00262893 0)
(0.994464 -0.000275016 0)
(1.00083 0.00823066 0)
(1.01078 0.000248944 0)
(1.00666 -0.0116482 0)
(0.993721 -0.00918012 0)
(0.989322 0.000886636 0)
(0.996621 0.00834129 0)
(1.00577 0.00545653 0)
(1.00493 0.00278728 0)
(1.00538 -0.000139019 0)
(1.006 -0.00595512 0)
(1.00123 -0.00332804 0)
(0.99862 -0.00337418 0)
(0.997234 -0.00480461 0)
(0.994376 -0.00105911 0)
(0.994077 0.00108862 0)
(0.993578 0.00398368 0)
(0.993077 0.00826044 0)
(0.994598 0.0104747 0)
(1.00034 -0.00253649 0)
(0.994814 -0.000261597 0)
(1.00074 0.00779698 0)
(1.01041 0.000209591 0)
(1.00634 -0.0111718 0)
(0.994149 -0.00879409 0)
(0.989773 0.000716929 0)
(0.996822 0.00795892 0)
(1.0055 0.00514163 0)
(1.00475 0.00261443 0)
(1.00494 -1.19077e-05 0)
(1.00588 -0.00561355 0)
(1.00131 -0.00327544 0)
(0.998554 -0.00299326 0)
(0.997311 -0.00451117 0)
(0.994763 -0.000910095 0)
(0.994368 0.00143464 0)
(0.994124 0.00390972 0)
(0.993578 0.00800537 0)
(0.994923 0.0103585 0)
(1.00025 -0.00244695 0)
(0.995141 -0.000238697 0)
(1.00066 0.00735144 0)
(1.01001 0.000180402 0)
(1.00604 -0.0107093 0)
(0.994557 -0.0084019 0)
(0.990235 0.000550023 0)
(0.997009 0.00756972 0)
(1.00524 0.00484516 0)
(1.00457 0.0024355 0)
(1.0045 0.000116388 0)
(1.00575 -0.00526602 0)
(1.0014 -0.00322367 0)
(0.998492 -0.00261527 0)
(0.997388 -0.00418332 0)
(0.995164 -0.000789352 0)
(0.994666 0.00177173 0)
(0.994633 0.00388374 0)
(0.994102 0.00767717 0)
(0.995236 0.0102349 0)
(1.00018 -0.00236128 0)
(0.995442 -0.000205083 0)
(1.0006 0.00689339 0)
(1.0096 0.000163787 0)
(1.00576 -0.0102594 0)
(0.994944 -0.00801014 0)
(0.990709 0.000391436 0)
(0.99718 0.00716607 0)
(1.00499 0.00456513 0)
(1.00439 0.00224686 0)
(1.00409 0.000244 0)
(1.00558 -0.00490645 0)
(1.00151 -0.00317195 0)
(0.998439 -0.00224332 0)
(0.997465 -0.00381768 0)
(0.995577 -0.000689628 0)
(0.994976 0.00208384 0)
(0.995097 0.00391674 0)
(0.994645 0.0072943 0)
(0.995559 0.0100451 0)
(1.00014 -0.00227826 0)
(0.995718 -0.000163221 0)
(1.00056 0.00642615 0)
(1.00918 0.000155985 0)
(1.00551 -0.00981722 0)
(0.99531 -0.00762099 0)
(0.991192 0.000243787 0)
(0.997336 0.0067476 0)
(1.00475 0.00429877 0)
(1.00419 0.00204868 0)
(1.0037 0.000364698 0)
(1.00539 -0.00453335 0)
(1.00164 -0.00312099 0)
(0.9984 -0.00188814 0)
(0.997537 -0.00341179 0)
(0.996 -0.000616508 0)
(0.995306 0.00235273 0)
(0.995513 0.00401367 0)
(0.995189 0.00690436 0)
(0.995912 0.00974384 0)
(1.00011 -0.00219957 0)
(0.995972 -0.000110456 0)
(1.00053 0.00595157 0)
(1.00874 0.000151187 0)
(1.00526 -0.00938512 0)
(0.995659 -0.00723587 0)
(0.99168 0.000116162 0)
(0.997481 0.0063165 0)
(1.00451 0.0040467 0)
(1.004 0.00185207 0)
(1.00333 0.000474565 0)
(1.00518 -0.00415702 0)
(1.00177 -0.00306969 0)
(0.998377 -0.00155276 0)
(0.997599 -0.00296911 0)
(0.996426 -0.000549907 0)
(0.995663 0.00256273 0)
(0.995884 0.00416146 0)
(0.995713 0.00656397 0)
(0.996307 0.00932338 0)
(1.0001 -0.0021252 0)
(0.99621 -4.85154e-05 0)
(1.00051 0.00547306 0)
(1.0083 0.000147395 0)
(1.00502 -0.00895715 0)
(0.995994 -0.00686771 0)
(0.992168 1.54937e-05 0)
(0.997619 0.00587322 0)
(1.00428 0.0038063 0)
(1.00381 0.0016645 0)
(1.00297 0.00057173 0)
(1.00494 -0.0037731 0)
(1.0019 -0.00300915 0)
(0.998374 -0.00124276 0)
(0.997647 -0.00249704 0)
(0.996849 -0.000476387 0)
(0.996049 0.00270594 0)
(0.996221 0.00432742 0)
(0.996196 0.00631086 0)
(0.996736 0.00882863 0)
(1.00009 -0.00205292 0)
(0.996434 1.72352e-05 0)
(1.00049 0.00499623 0)
(1.00785 0.000140243 0)
(1.00479 -0.00852143 0)
(0.996317 -0.00652451 0)
(0.992649 -5.91127e-05 0)
(0.99775 0.00542506 0)
(1.00406 0.0035693 0)
(1.00363 0.00148672 0)
(1.00264 0.000657285 0)
(1.00469 -0.00337772 0)
(1.00204 -0.0029368 0)
(0.998394 -0.000965055 0)
(0.997679 -0.00200236 0)
(0.997258 -0.00038129 0)
(0.996465 0.0027908 0)
(0.996539 0.00448113 0)
(0.996626 0.00614677 0)
(0.997176 0.00833418 0)
(1.00009 -0.00198351 0)
(0.996647 8.62166e-05 0)
(1.00047 0.00452722 0)
(1.00741 0.00012547 0)
(1.00456 -0.00807882 0)
(0.996629 -0.00621749 0)
(0.993119 -0.000109959 0)
(0.997877 0.0049787 0)
(1.00383 0.00332367 0)
(1.00345 0.00131799 0)
(1.00232 0.000731327 0)
(1.00442 -0.00297799 0)
(1.00216 -0.0028545 0)
(0.998442 -0.000720019 0)
(0.997696 -0.00149506 0)
(0.997645 -0.000264307 0)
(0.996903 0.00282687 0)
(0.99685 0.00460532 0)
(0.997003 0.00604012 0)
(0.997602 0.0078986 0)
(1.00008 -0.00191699 0)
(0.99685 0.000156869 0)
(1.00045 0.00407601 0)
(1.00697 9.40815e-05 0)
(1.00432 -0.00762483 0)
(0.996931 -0.00594711 0)
(0.993577 -0.000151261 0)
(0.997997 0.00455112 0)
(1.00361 0.00306963 0)
(1.00327 0.00115949 0)
(1.00202 0.000793892 0)
(1.00414 -0.00257922 0)
(1.00228 -0.00275474 0)
(0.99852 -0.000507582 0)
(0.997699 -0.000980005 0)
(0.998001 -0.000122448 0)
(0.99736 0.00282265 0)
(0.997161 0.00470635 0)
(0.997336 0.00595892 0)
(0.997995 0.00753469 0)
(1.00008 -0.00185191 0)
(0.997043 0.000224878 0)
(1.00043 0.00364901 0)
(1.00655 2.98444e-05 0)
(1.00408 -0.00715238 0)
(0.997223 -0.00570084 0)
(0.994021 -0.000180179 0)
(0.998109 0.00415292 0)
(1.00339 0.00281585 0)
(1.00311 0.0010144 0)
(1.00173 0.000847435 0)
(1.00384 -0.00218289 0)
(1.00239 -0.00263622 0)
(0.998633 -0.00033094 0)
(0.997693 -0.000469431 0)
(0.998317 5.43747e-05 0)
(0.997832 0.00277608 0)
(0.997478 0.00478748 0)
(0.997627 0.00589431 0)
(0.998348 0.00721802 0)
(1.00008 -0.00178669 0)
(0.997227 0.000286805 0)
(1.00039 0.00325431 0)
(1.00613 -7.21718e-05 0)
(1.00384 -0.00667141 0)
(0.997503 -0.00547702 0)
(0.994453 -0.000210214 0)
(0.998211 0.00378915 0)
(1.00317 0.0025597 0)
(1.00295 0.000872723 0)
(1.00148 0.00089555 0)
(1.00353 -0.00178304 0)
(1.00248 -0.00249606 0)
(0.998783 -0.000190296 0)
(0.997685 2.45549e-05 0)
(0.998586 0.000274027 0)
(0.99831 0.00268866 0)
(0.997808 0.00483437 0)
(0.997879 0.00585973 0)
(0.998656 0.00692983 0)
(1.00007 -0.00172127 0)
(0.997401 0.000336404 0)
(1.00036 0.00291023 0)
(1.00572 -0.000203388 0)
(1.0036 -0.00619656 0)
(0.997769 -0.00526223 0)
(0.994875 -0.000270864 0)
(0.998305 0.0034549 0)
(1.00295 0.00231253 0)
(1.0028 0.000737867 0)
(1.00124 0.000937744 0)
(1.00321 -0.00137961 0)
(1.00255 -0.00232572 0)
(0.998967 -8.80346e-05 0)
(0.997684 0.000492969 0)
(0.998799 0.000542199 0)
(0.998786 0.00257472 0)
(0.998163 0.00482006 0)
(0.998098 0.0058629 0)
(0.998911 0.00667728 0)
(1.00007 -0.001653 0)
(0.997568 0.000366818 0)
(1.00031 0.00261828 0)
(1.00532 -0.000362212 0)
(1.00336 -0.00573327 0)
(0.998019 -0.00504149 0)
(0.995286 -0.000352849 0)
(0.998392 0.00314119 0)
(1.00273 0.00208681 0)
(1.00267 0.000611207 0)
(1.00103 0.000967605 0)
(1.00289 -0.000987187 0)
(1.00259 -0.00212091 0)
(0.999182 -1.80025e-05 0)
(0.997699 0.000920057 0)
(0.998954 0.00085551 0)
(0.999243 0.00246145 0)
(0.998554 0.00472325 0)
(0.998298 0.00588061 0)
(0.99911 0.00648039 0)
(1.00007 -0.00158149 0)
(0.997727 0.000376282 0)
(1.00025 0.00237363 0)
(1.00494 -0.000534842 0)
(1.00312 -0.00529383 0)
(0.998252 -0.00480057 0)
(0.995685 -0.000459895 0)
(0.998474 0.00285229 0)
(1.00251 0.00189098 0)
(1.00253 0.00048923 0)
(1.00085 0.000981219 0)
(1.00256 -0.000613234 0)
(1.0026 -0.00189026 0)
(0.999422 1.70506e-05 0)
(0.99774 0.00127751 0)
(0.999051 0.00119682 0)
(0.99966 0.00237861 0)
(0.99898 0.00455269 0)
(0.998501 0.00587793 0)
(0.999249 0.00635593 0)
(1.00006 -0.00150815 0)
(0.99788 0.000366133 0)
(1.00018 0.0021702 0)
(1.00456 -0.000705383 0)
(1.00288 -0.00489613 0)
(0.998463 -0.00453099 0)
(0.996069 -0.000575604 0)
(0.998555 0.0025905 0)
(1.00229 0.00172602 0)
(1.00241 0.000372582 0)
(1.0007 0.000971974 0)
(1.00223 -0.000268261 0)
(1.00257 -0.0016333 0)
(0.999681 2.62225e-05 0)
(0.997818 0.0015536 0)
(0.999101 0.00154084 0)
(1.00002 0.00233622 0)
(0.999434 0.00432483 0)
(0.99873 0.00581668 0)
(0.99934 0.00628802 0)
(1.00005 -0.00143047 0)
(0.998027 0.000328869 0)
(1.0001 0.00199628 0)
(1.0042 -0.000849426 0)
(1.00266 -0.00454441 0)
(0.998654 -0.00425794 0)
(0.996438 -0.000689248 0)
(0.998633 0.00234862 0)
(1.00206 0.0016013 0)
(1.00228 0.000278823 0)
(1.00059 0.000938655 0)
(1.00192 3.87651e-05 0)
(1.00251 -0.00134958 0)
(0.999951 3.15446e-05 0)
(0.997938 0.0017545 0)
(0.999115 0.00187611 0)
(1.00031 0.00234519 0)
(0.999899 0.00406844 0)
(0.999003 0.00568001 0)
(0.999405 0.00623768 0)
(1.00005 -0.00134571 0)
(0.99817 0.000260476 0)
(1.00001 0.00185157 0)
(1.00385 -0.000974545 0)
(1.00245 -0.00422056 0)
(0.998826 -0.00398589 0)
(0.996792 -0.00079959 0)
(0.998715 0.00210456 0)
(1.00183 0.00152264 0)
(1.00216 0.000226517 0)
(1.00049 0.000885574 0)
(1.00163 0.000300766 0)
(1.00242 -0.00105207 0)
(1.00022 3.79751e-05 0)
(0.998105 0.00187981 0)
(0.99911 0.00218864 0)
(1.00053 0.00241074 0)
(1.00035 0.00381717 0)
(0.999326 0.00547984 0)
(0.999471 0.00617792 0)
(1.00004 -0.00125896 0)
(0.998311 0.000164082 0)
(0.999917 0.00173083 0)
(1.00351 -0.00106644 0)
(1.00225 -0.00394987 0)
(0.998982 -0.00370988 0)
(0.997127 -0.000931663 0)
(0.998804 0.00184086 0)
(1.00161 0.00149111 0)
(1.00202 0.000229335 0)
(1.00043 0.000837218 0)
(1.00136 0.000532877 0)
(1.00231 -0.000732119 0)
(1.00048 6.90001e-05 0)
(0.998318 0.00193874 0)
(0.999104 0.00246086 0)
(1.00067 0.00252201 0)
(1.00078 0.00358466 0)
(0.999699 0.00521921 0)
(0.999566 0.00607295 0)
(1.00003 -0.0011689 0)
(0.998454 5.19575e-05 0)
(0.999824 0.00160377 0)
(1.00316 -0.00111305 0)
(1.00207 -0.00373468 0)
(0.99912 -0.00340136 0)
(0.99744 -0.000986895 0)
(0.998921 0.00158909 0)
(1.00141 0.00145163 0)
(1.00189 0.000242415 0)
(1.00038 0.000777549 0)
(1.00112 0.0007202 0)
(1.00216 -0.000416888 0)
(1.00072 0.000128349 0)
(0.998567 0.00194807 0)
(0.999107 0.00268181 0)
(1.00074 0.00267984 0)
(1.00114 0.00340233 0)
(1.00011 0.00492302 0)
(0.999709 0.00591671 0)
(1.00002 -0.00107419 0)
(0.998595 -7.79992e-05 0)
(0.999736 0.00148148 0)
(1.00283 -0.00112806 0)
(1.00191 -0.00352427 0)
(0.999253 -0.00308371 0)
(0.99773 -0.000953652 0)
(0.999035 0.00134171 0)
(1.00122 0.00134556 0)
(1.00175 0.000252747 0)
(1.00035 0.000715607 0)
(1.00091 0.000854439 0)
(1.002 -0.000124261 0)
(1.00093 0.000200354 0)
(0.998852 0.00191347 0)
(0.999145 0.00282564 0)
(1.00075 0.00285016 0)
(1.00144 0.0032786 0)
(1.00053 0.00460292 0)
(0.999915 0.0056976 0)
(1.00001 -0.000979583 0)
(0.998737 -0.000216067 0)
(0.999659 0.00136467 0)
(1.00251 -0.0010956 0)
(1.00176 -0.0033121 0)
(0.999385 -0.00279519 0)
(0.997996 -0.000931739 0)
(0.999145 0.00107205 0)
(1.00105 0.00120782 0)
(1.00161 0.000285631 0)
(1.00033 0.000682615 0)
(1.00073 0.000962097 0)
(1.00182 0.000155439 0)
(1.00111 0.000296869 0)
(0.999163 0.0018578 0)
(0.999224 0.00289967 0)
(1.00073 0.00300882 0)
(1.00166 0.0032199 0)
(1.00095 0.00429305 0)
(1.00018 0.00542293 0)
(1.00001 -0.000887182 0)
(0.998878 -0.000340536 0)
(0.999594 0.00121919 0)
(1.0022 -0.00101609 0)
(1.00162 -0.00310037 0)
(0.999513 -0.00254525 0)
(0.998231 -0.000880976 0)
(0.999251 0.000844436 0)
(1.00091 0.00107791 0)
(1.00148 0.000323831 0)
(1.00032 0.000665509 0)
(1.00059 0.00104897 0)
(1.00165 0.000414741 0)
(1.00126 0.000420752 0)
(0.999485 0.00180188 0)
(0.999348 0.00292207 0)
(1.0007 0.00314477 0)
(1.0018 0.00322326 0)
(1.00134 0.00403572 0)
(1.0005 0.00512111 0)
(0.999996 -0.000798545 0)
(0.999017 -0.000460571 0)
(0.999548 0.00106296 0)
(1.00191 -0.000909781 0)
(1.0015 -0.00290877 0)
(0.999643 -0.00234592 0)
(0.998451 -0.000794123 0)
(0.999352 0.000692483 0)
(1.00079 0.000956127 0)
(1.00136 0.000351552 0)
(1.00033 0.000653408 0)
(1.00048 0.0011167 0)
(1.00148 0.000652553 0)
(1.00136 0.000563006 0)
(0.999807 0.00175124 0)
(0.999516 0.00289724 0)
(1.00068 0.00323675 0)
(1.00188 0.00325619 0)
(1.00167 0.00383584 0)
(1.00085 0.00480576 0)
(0.999986 -0.000713739 0)
(0.999152 -0.000567247 0)
(0.99952 0.000890444 0)
(1.00163 -0.000803463 0)
(1.00138 -0.00270889 0)
(0.99978 -0.00216215 0)
(0.998659 -0.000704994 0)
(0.999443 0.000574538 0)
(1.00069 0.000834874 0)
(1.00126 0.00036307 0)
(1.00035 0.000647164 0)
(1.00041 0.0011688 0)
(1.00132 0.000864866 0)
(1.00144 0.00071355 0)
(1.00012 0.00170918 0)
(0.99972 0.00283503 0)
(1.00067 0.00328047 0)
(1.00191 0.00329598 0)
(1.00193 0.00369168 0)
(1.00121 0.00450489 0)
(0.999977 -0.000636091 0)
(0.999282 -0.000654131 0)
(0.999513 0.000693656 0)
(1.00138 -0.000680839 0)
(1.00126 -0.00248557 0)
(0.999916 -0.00200785 0)
(0.998858 -0.00062724 0)
(0.999529 0.00049529 0)
(1.00061 0.000738222 0)
(1.00117 0.000374677 0)
(1.00039 0.000644181 0)
(1.00037 0.00120192 0)
(1.00118 0.00105176 0)
(1.00149 0.000865444 0)
(1.00041 0.0016804 0)
(0.999954 0.00275207 0)
(1.0007 0.00328132 0)
(1.00191 0.0033294 0)
(1.00212 0.00359143 0)
(1.00154 0.00423937 0)
(0.999969 -0.000567917 0)
(0.999403 -0.000714026 0)
(0.999527 0.000484238 0)
(1.00115 -0.000560672 0)
(1.00115 -0.00224157 0)
(1.00005 -0.00187986 0)
(0.999055 -0.00056558 0)
(0.999609 0.000449346 0)
(1.00053 0.000671708 0)
(1.0011 0.000387113 0)
(1.00043 0.000635539 0)
(1.00037 0.00120979 0)
(1.00106 0.00121067 0)
(1.00151 0.00102614 0)
(1.00067 0.00167237 0)
(1.00021 0.00266207 0)
(1.00076 0.0032446 0)
(1.0019 0.00333939 0)
(1.00226 0.00351421 0)
(1.00183 0.00401256 0)
(0.999962 -0.000507333 0)
(0.999514 -0.000747989 0)
(0.999561 0.0002833 0)
(1.00096 -0.000453801 0)
(1.00104 -0.00197266 0)
(1.00018 -0.00176302 0)
(0.999252 -0.000542894 0)
(0.99969 0.000411905 0)
(1.00047 0.000632481 0)
(1.00104 0.000406665 0)
(1.00048 0.000635278 0)
(1.0004 0.00120311 0)
(1.00097 0.00133133 0)
(1.00151 0.00118221 0)
(1.00091 0.00167799 0)
(1.00047 0.00256325 0)
(1.00086 0.00317564 0)
(1.0019 0.00331996 0)
(1.00235 0.00344769 0)
(1.00208 0.00383128 0)
(0.999956 -0.000456987 0)
(0.999613 -0.000748498 0)
(0.99961 0.000105742 0)
(1.0008 -0.000374169 0)
(1.00092 -0.00171173 0)
(1.0003 -0.00164483 0)
(0.999448 -0.000544235 0)
(0.999778 0.000379605 0)
(1.00042 0.000618151 0)
(1.00098 0.000436516 0)
(1.00054 0.000643113 0)
(1.00045 0.0011856 0)
(1.00091 0.00141201 0)
(1.00151 0.00131561 0)
(1.00111 0.00169887 0)
(1.00073 0.00247092 0)
(1.00098 0.00309367 0)
(1.0019 0.00329053 0)
(1.00242 0.0033921 0)
(1.00227 0.00369261 0)
(0.999952 -0.000415654 0)
(0.9997 -0.000718083 0)
(0.999668 -5.03001e-05 0)
(1.00067 -0.000333309 0)
(1.00081 -0.00146467 0)
(1.0004 -0.00151301 0)
(0.999641 -0.000556924 0)
(0.999875 0.000338016 0)
(1.00038 0.000616968 0)
(1.00093 0.000483074 0)
(1.0006 0.00065723 0)
(1.00052 0.00116158 0)
(1.00088 0.0014663 0)
(1.0015 0.0014279 0)
(1.00128 0.00173222 0)
(1.00099 0.00239256 0)
(1.00113 0.00299559 0)
(1.00192 0.0032449 0)
(1.00246 0.0033314 0)
(1.00243 0.00356228 0)
(0.999949 -0.000380625 0)
(0.999773 -0.000669906 0)
(0.999728 -0.000182815 0)
(1.00057 -0.000324436 0)
(1.00071 -0.00123373 0)
(1.00047 -0.00135773 0)
(0.999823 -0.000566953 0)
(0.999983 0.000281987 0)
(1.00036 0.000614909 0)
(1.00088 0.000543101 0)
(1.00065 0.000687594 0)
(1.0006 0.00113791 0)
(1.00088 0.00149622 0)
(1.00149 0.00152126 0)
(1.00142 0.00176219 0)
(1.00122 0.00232076 0)
(1.0013 0.00287972 0)
(1.00196 0.00316957 0)
(1.00249 0.00326345 0)
(1.00255 0.00342871 0)
(0.999947 -0.000352007 0)
(0.999833 -0.000613967 0)
(0.999786 -0.000283252 0)
(1.0005 -0.00033594 0)
(1.00062 -0.00103061 0)
(1.00053 -0.00118839 0)
(0.999987 -0.000561734 0)
(1.0001 0.000222288 0)
(1.00035 0.000606314 0)
(1.00084 0.00060198 0)
(1.00069 0.000735081 0)
(1.00069 0.00112202 0)
(1.00091 0.0014952 0)
(1.00149 0.00158538 0)
(1.00154 0.00178412 0)
(1.00143 0.00225342 0)
(1.00147 0.00276673 0)
(1.00201 0.00307421 0)
(1.0025 0.00319858 0)
(1.00265 0.003308 0)
(0.999946 -0.000325225 0)
(0.999883 -0.00056068 0)
(0.999837 -0.00034983 0)
(1.00045 -0.000358628 0)
(1.00054 -0.000858522 0)
(1.00056 -0.00101225 0)
(1.00013 -0.000532428 0)
(1.00022 0.000166741 0)
(1.00037 0.00058752 0)
(1.00081 0.000652784 0)
(1.00072 0.000790163 0)
(1.00078 0.00112328 0)
(1.00095 0.00148284 0)
(1.0015 0.00162065 0)
(1.00163 0.00180262 0)
(1.00162 0.00218985 0)
(1.00165 0.00265844 0)
(1.00209 0.00296514 0)
(1.00252 0.00312289 0)
(1.00272 0.00320208 0)
(0.999945 -0.000301625 0)
(0.999923 -0.000509603 0)
(0.999882 -0.000385502 0)
(1.00042 -0.000382172 0)
(1.00048 -0.000719526 0)
(1.00058 -0.00083963 0)
(1.00025 -0.000476892 0)
(1.00034 0.000123359 0)
(1.0004 0.000556877 0)
(1.0008 0.000692314 0)
(1.00075 0.000840823 0)
(1.00085 0.00113357 0)
(1.001 0.00147579 0)
(1.00152 0.00163777 0)
(1.00171 0.00181275 0)
(1.00179 0.00213053 0)
(1.00182 0.00254628 0)
(1.00219 0.00284621 0)
(1.00254 0.00302662 0)
(1.00275 0.00310549 0)
(0.999945 -0.00027935 0)
(0.999957 -0.00046321 0)
(0.999918 -0.000394934 0)
(1.0004 -0.000398522 0)
(1.00044 -0.000612252 0)
(1.0006 -0.000681363 0)
(1.00034 -0.00040138 0)
(1.00044 0.000101442 0)
(1.00045 0.0005247 0)
(1.0008 0.000717645 0)
(1.00078 0.000887684 0)
(1.00092 0.00114512 0)
(1.00106 0.00146708 0)
(1.00154 0.00164593 0)
(1.00178 0.00181054 0)
(1.00193 0.00207594 0)
(1.00197 0.00243642 0)
(1.00229 0.00271982 0)
(1.00257 0.00291385 0)
(1.00278 0.00300405 0)
(0.999945 -0.000256621 0)
(0.999985 -0.000423772 0)
(0.999948 -0.000387341 0)
(1.0004 -0.00040006 0)
(1.00041 -0.000527829 0)
(1.00061 -0.000540645 0)
(1.00041 -0.000312578 0)
(1.00054 0.00010237 0)
(1.00051 0.000500905 0)
(1.00082 0.000725465 0)
(1.00081 0.00092553 0)
(1.00098 0.00116059 0)
(1.00111 0.0014513 0)
(1.00157 0.00164366 0)
(1.00183 0.00180203 0)
(1.00205 0.0020221 0)
(1.00211 0.00233841 0)
(1.0024 0.00259327 0)
(1.00262 0.00279351 0)
(1.00279 0.00289431 0)
(0.999945 -0.000234628 0)
(1.00001 -0.000388132 0)
(0.999972 -0.000367787 0)
(1.00039 -0.00038512 0)
(1.0004 -0.000457176 0)
(1.00062 -0.00042095 0)
(1.00047 -0.000218568 0)
(1.00062 0.000126435 0)
(1.00057 0.000490183 0)
(1.00085 0.00072633 0)
(1.00084 0.000945567 0)
(1.00104 0.00117605 0)
(1.00117 0.00143772 0)
(1.0016 0.00162632 0)
(1.00187 0.00178767 0)
(1.00214 0.00196479 0)
(1.00223 0.00224191 0)
(1.00249 0.0024698 0)
(1.00267 0.00266363 0)
(1.00281 0.00277655 0)