/*--------------------------------*- C++ -*----------------------------------*\
| =========                 |                                                 |
| \\      /  F ield         | OpenFOAM: The Open Source CFD Toolbox           |
|  \\    /   O peration     | Version:  2506                                  |
|   \\  /    A nd           | Website:  www.openfoam.com                      |
|    \\/     M anipulation  |                                                 |
\*---------------------------------------------------------------------------*/
FoamFile
{
    version     2.0;
    format      ascii;
    arch        "LSB;label=32;scalar=64";
    class       volScalarField;
    location    "4.35";
    object      p;
}
// * * * * * * * * * * * * * * * * * * * * * * * * * * * * * * * * * * * * * //

dimensions      [0 2 -2 0 0 0 0];

internalField   nonuniform List<scalar> 
9600
(
-1.2138e-10
-0.00196102
-0.00289077
-0.000495363
0.000376593
-0.00083875
-0.000446518
0.000921325
-0.000539585
0.000552599
0.00145829
0.00372324
0.00674642
0.00846114
0.0114684
0.0124851
0.0176306
0.0184233
0.0239048
0.0315458
-1.29154e-05
-0.00194838
-0.00288558
-0.000486982
0.000362846
-0.000842739
-0.000453183
0.000915731
-0.000528193
0.00056534
0.00147091
0.0037193
0.0067366
0.00843947
0.0114665
0.012456
0.0176513
0.0183691
0.0241606
0.0310338
-2.37572e-05
-0.0019347
-0.00288098
-0.000482801
0.000332724
-0.000836622
-0.000458632
0.00091295
-0.000511727
0.000574719
0.00149564
0.00371078
0.00671728
0.00841193
0.0114598
0.0124285
0.0176517
0.0183266
0.0242642
0.030329
-3.53126e-05
-0.00192111
-0.00287524
-0.00048596
0.000302168
-0.000815022
-0.000462606
0.000911033
-0.00048581
0.000587915
0.0015375
0.00370225
0.00670163
0.00838467
0.0114604
0.0124031
0.0176456
0.0182935
0.0242279
0.0297163
-4.90854e-05
-0.00190621
-0.00286614
-0.000492591
0.000276775
-0.000782245
-0.000462033
0.000911738
-0.000452726
0.000606515
0.0015956
0.00369945
0.0066923
0.00835491
0.0114714
0.0123804
0.0176431
0.0182611
0.0241669
0.0291518
-6.48328e-05
-0.00188872
-0.00285191
-0.000499713
0.00025601
-0.000741515
-0.000455526
0.000915141
-0.000411846
0.000632413
0.00166778
0.00370487
0.00668706
0.00832235
0.0114906
0.0123658
0.0176326
0.0182378
0.0240584
0.0286121
-8.16194e-05
-0.00186791
-0.00283149
-0.000505273
0.000239727
-0.000694747
-0.000442665
0.00092144
-0.000364127
0.000664755
0.0017511
0.0037179
0.00668507
0.00828734
0.0115166
0.0123607
0.0176088
0.0182232
0.0238937
0.0280876
-9.84105e-05
-0.00184365
-0.00280421
-0.000507095
0.000228308
-0.000643687
-0.000424053
0.000930385
-0.000310299
0.000701984
0.00184267
0.00373676
0.00668512
0.00825002
0.0115465
0.0123664
0.0175684
0.0182148
0.0236705
0.0275737
-0.000114538
-0.00181629
-0.00276962
-0.00050365
0.000221509
-0.000590059
-0.000400502
0.000941695
-0.000251151
0.000742498
0.00193963
0.00375917
0.00668476
0.00821041
0.0115751
0.0123836
0.0175078
0.0182084
0.0233912
0.0270661
-0.000129843
-0.00178635
-0.00272796
-0.000494325
0.000218581
-0.000535406
-0.000372848
0.000955061
-0.000187072
0.000785294
0.0020396
0.00377829
0.00668146
0.00816908
0.0115974
0.0124112
0.0174243
0.018199
0.0230604
0.0265596
-0.000144511
-0.00175431
-0.00268014
-0.000479417
0.000218776
-0.00048094
-0.000342056
0.000970117
-0.000118626
0.000830074
0.00214131
0.00379542
0.00667377
0.00812726
0.0116078
0.0124458
0.0173161
0.0181809
0.0226821
0.0260483
-0.000158841
-0.00172041
-0.0026275
-0.000460005
0.000221279
-0.000427729
-0.00030915
0.000986374
-4.67168e-05
0.000877029
0.00224485
0.00381233
0.00666178
0.00808682
0.011602
0.0124829
0.0171837
0.0181492
0.0222498
0.0255264
-0.000173064
-0.00168477
-0.00257133
-0.000437542
0.000225142
-0.000376638
-0.000274922
0.00100319
2.75958e-05
0.00092631
0.00235128
0.00383257
0.00664669
0.00804996
0.0115779
0.0125179
0.0170283
0.0181003
0.0218178
0.0249894
-0.000187308
-0.00164741
-0.00251273
-0.000413151
0.000229773
-0.000328229
-0.000239916
0.00101989
0.000103212
0.000977919
0.00246143
0.00385974
0.00663019
0.00801892
0.0115353
0.0125473
0.0168521
0.0180313
0.0213656
0.0244299
-0.000201624
-0.00160833
-0.00245242
-0.000387391
0.000235019
-0.000282937
-0.000204425
0.00103596
0.000179306
0.00103173
0.00257524
0.00389586
0.00661371
0.00799521
0.011476
0.0125695
0.0166573
0.0179385
0.0208986
0.0238497
-0.000215996
-0.00156757
-0.0023907
-0.000360473
0.000240901
-0.000241026
-0.000168393
0.0010512
0.000255567
0.00108763
0.0026919
0.00394113
0.0065975
0.00797904
0.0114022
0.0125839
0.0164467
0.0178191
0.0204224
0.0232495
-0.000230365
-0.0015252
-0.00232764
-0.000332508
0.0002476
-0.000202461
-0.000131503
0.00106553
0.000331905
0.00114566
0.0028103
0.00399445
0.0065806
0.00796941
0.011316
0.0125917
0.0162223
0.0176705
0.0199422
0.0226312
-0.000244646
-0.00148133
-0.00226322
-0.000303692
0.000255502
-0.00016702
-9.34284e-05
0.00107908
0.000408224
0.00120601
0.00292929
0.00405423
0.00656154
0.00796469
0.011219
0.0125875
0.015986
0.0174908
0.0194625
0.0219982
-0.000258735
-0.00143612
-0.00219741
-0.000274195
0.000264986
-0.000134532
-5.38799e-05
0.00109211
0.000484346
0.0012689
0.00304774
0.00411908
0.00653919
0.00796296
0.0111126
0.0125717
0.0157404
0.01728
0.0189847
0.021354
-0.000272505
-0.00138974
-0.00213016
-0.000244154
0.000276336
-0.000104798
-1.26979e-05
0.00110492
0.000559967
0.00133445
0.00316474
0.00418789
0.00651294
0.00796205
0.010998
0.0125425
0.0154877
0.0170386
0.0185083
0.020702
-0.000285814
-0.00134238
-0.00206142
-0.000213754
0.000289807
-7.75551e-05
3.00968e-05
0.00111786
0.000634736
0.0014027
0.00327958
0.00425976
0.00648222
0.00795992
0.0108763
0.0124979
0.0152291
0.0167683
0.0180332
0.0200461
-0.000298493
-0.00129423
-0.00199116
-0.000183207
0.000305596
-5.25732e-05
7.43614e-05
0.00113137
0.00070833
0.00147361
0.00339175
0.00433394
0.00644652
0.00795474
0.0107489
0.0124362
0.0149653
0.0164714
0.0175588
0.0193902
-0.000310367
-0.00124548
-0.00191938
-0.000152866
0.000323889
-2.95883e-05
0.000119756
0.00114588
0.000780509
0.00154701
0.00350086
0.00440966
0.00640586
0.00794496
0.0106164
0.0123557
0.014697
0.01615
0.0170839
0.0187378
-0.00032124
-0.00119631
-0.00184606
-0.000126756
0.000344774
-8.30606e-06
0.000165844
0.00116177
0.000851146
0.00162259
0.00360657
0.00448618
0.00636043
0.00792919
0.0104796
0.0122549
0.0144236
0.0158072
0.0166073
0.0180911
-0.000330901
-0.00114692
-0.00177119
-9.65616e-05
0.000368221
1.16346e-05
0.000212156
0.00117931
0.000920163
0.00169999
0.00370861
0.00456292
0.00631088
0.00790593
0.0103394
0.0121331
0.0141442
0.015446
0.0161284
0.0174507
-0.000339135
-0.00109745
-0.00169481
-6.60087e-05
0.000394231
3.06868e-05
0.0002582
0.00119878
0.000987455
0.00177863
0.00380687
0.00463922
0.00625721
0.00787377
0.0101962
0.0119902
0.0138582
0.01507
0.0156467
0.0168151
-0.00034571
-0.00104809
-0.00161705
-3.54785e-05
0.000422712
4.93374e-05
0.000303609
0.00122034
0.00105299
0.00185783
0.00390125
0.00471442
0.00619938
0.00783161
0.0100501
0.0118268
0.0135639
0.0146823
0.0151634
0.0161838
-0.000350419
-0.000998946
-0.00153806
-4.95991e-06
0.000453441
6.81216e-05
0.0003481
0.00124397
0.00111689
0.00193697
0.00399149
0.00478805
0.00613738
0.00777823
0.00990165
0.0116438
0.0132595
0.0142843
0.0146799
0.0155582
-0.000353048
-0.000950044
-0.00145808
2.55168e-05
0.000486257
8.75757e-05
0.000391409
0.00126963
0.00117929
0.00201539
0.00407723
0.00485952
0.00607119
0.00771222
0.00975078
0.011443
0.0129441
0.013877
0.0141966
0.0149403
-0.000353363
-0.000901374
-0.00137726
5.58488e-05
0.000520948
0.000108169
0.000433259
0.0012974
0.0012404
0.00209214
0.00415811
0.00492848
0.00600059
0.00763218
0.00959767
0.0112269
0.0126171
0.0134616
0.0137142
0.0143318
-0.000351175
-0.000852912
-0.00129582
8.6082e-05
0.000557336
0.000130362
0.000473331
0.00132715
0.00130059
0.00216627
0.00423339
0.00499474
0.00592577
0.00753671
0.00944157
0.010998
0.0122782
0.013039
0.0132346
0.0137343
-0.000346337
-0.000804612
-0.00121407
0.000116336
0.000595373
0.000154659
0.000511448
0.00135853
0.00136007
0.00223706
0.0043021
0.00505782
0.00584745
0.00742454
0.00928076
0.0107596
0.0119275
0.0126086
0.0127588
0.0131506
-0.000338734
-0.000756336
-0.00113223
0.000146517
0.000634957
0.000181634
0.000547492
0.00139128
0.00141911
0.00230384
0.00436296
0.00511685
0.00576661
0.00729522
0.00911353
0.010514
0.0115662
0.0121703
0.0122861
0.0125833
-0.000328281
-0.000707902
-0.00105036
0.000176442
0.000675895
0.000211908
0.000581107
0.00142497
0.00147833
0.00236579
0.00441445
0.00517077
0.00568434
0.00714888
0.00893773
0.0102633
0.0111971
0.0117241
0.0118152
0.0120354
-0.000314897
-0.000659229
-0.000968367
0.000206064
0.000717795
0.000246007
0.000611903
0.00145891
0.00153857
0.00242245
0.00445492
0.00521838
0.00560169
0.00698619
0.00875061
0.0100089
0.010823
0.0112706
0.0113444
0.0115072
-0.000298467
-0.000610289
-0.000886154
0.000235448
0.000760105
0.000284583
0.000639893
0.00149192
0.00160043
0.0024744
0.00448292
0.00525754
0.00551934
0.00680842
0.0085498
0.00975086
0.0104465
0.0108121
0.0108723
0.0109966
-0.000278897
-0.000561038
-0.000803782
0.000264695
0.000802402
0.000328256
0.000665477
0.00152226
0.00166356
0.00252272
0.00449794
0.0052857
0.00543727
0.00661748
0.00833388
0.00948975
0.0100701
0.0103501
0.0103983
0.0105003
-0.00025607
-0.000511533
-0.000721207
0.000294232
0.000844071
0.000377617
0.000689413
0.00154839
0.00172695
0.00256809
0.00449971
0.00530069
0.00535507
0.00641548
0.00810128
0.0092255
0.00969707
0.00988587
0.00992178
0.010015
-0.000229809
-0.000462077
-0.000638198
0.000324832
0.000883899
0.000432954
0.000713025
0.00156893
0.00178929
0.00261086
0.00448818
0.00530115
0.00527248
0.00620384
0.00785053
0.00895677
0.0093306
0.00942163
0.0094427
0.00953857
-0.00019988
-0.000412998
-0.000554917
0.000357637
0.000920747
0.000494011
0.00073809
0.00158268
0.00184855
0.0026513
0.00446428
0.00528627
0.00518889
0.00598447
0.00758065
0.00868102
0.00897316
0.00896077
0.00896022
0.00906931
-0.000166056
-0.000364437
-0.000471866
0.00039397
0.000954124
0.000559498
0.000766376
0.00158957
0.00190209
0.002689
0.0044291
0.00525518
0.00510355
0.00576023
0.00729145
0.00839446
0.00862711
0.00850851
0.00847269
0.00860417
-0.000128263
-0.000316312
-0.000389705
0.000434601
0.000984099
0.000627284
0.00079946
0.00159082
0.00194673
0.00272185
0.00438349
0.0052081
0.00501665
0.00553394
0.00698375
0.00809427
0.00829231
0.00807174
0.00798074
0.00813673
-8.64511e-05
-0.000268067
-0.000309854
0.000479961
0.00101218
0.000694266
0.000837784
0.00158859
0.00198006
0.0027466
0.0043281
0.00514667
0.00492861
0.005308
0.00665911
0.0077797
0.00796521
0.00765658
0.00748992
0.00765979
-4.07704e-05
-0.000218768
-0.000233878
0.000530027
0.00104131
0.000758016
0.000879472
0.00158498
0.00200232
0.00275992
0.00426221
0.00507257
0.00483969
0.00508504
0.00632059
0.00744356
0.00763932
0.0072656
0.00701056
0.00717022
8.30288e-06
-0.000167293
-0.000162683
0.000583168
0.00107413
0.000815728
0.000921476
0.00158372
0.0020158
0.0027592
0.00418387
0.00498575
0.0047502
0.00486848
0.00597277
0.00708594
0.00731007
0.00689628
0.00655312
0.00667221
6.0401e-05
-0.000112461
-9.70025e-05
0.000636514
0.00111291
0.000869092
0.000960771
0.00158586
0.00202373
0.00274425
0.00409078
0.00488458
0.00465953
0.00466184
0.00562012
0.00670803
0.00698116
0.00654309
0.00612418
0.00617744
0.000114964
-5.31683e-05
-3.68063e-05
0.000687119
0.00115889
0.000919853
0.000993394
0.00158887
0.00202993
0.00271706
0.00398193
0.00476755
0.0045651
0.00446745
0.00526823
0.00631055
0.00663338
0.00620094
0.00572263
0.00569976
0.000171234
1.13828e-05
1.91433e-05
0.000731502
0.00121255
0.000972322
0.00101645
0.00158886
0.00203721
0.0026824
0.0038587
0.00463177
0.0044626
0.00428585
0.00492497
0.00589764
0.00627004
0.00587659
0.0053442
0.00524858
0.000228642
8.15348e-05
7.30515e-05
0.000766216
0.00127177
0.00103134
0.00103089
0.00158027
0.00204428
0.00264708
0.00372505
0.00447497
0.00434757
0.00411483
0.00459721
0.00547681
0.0058859
0.00554545
0.00498613
0.0048244
0.000286615
0.000157299
0.000127691
0.000789264
0.00133229
0.00109971
0.00103899
0.00155749
0.00204737
0.00261651
0.00358738
0.00429886
0.00421395
0.00394854
0.0042884
0.00505677
0.00548293
0.00520998
0.0046488
0.00442248
0.000344627
0.000238108
0.000186202
0.000800144
0.0013865
0.00117896
0.00104556
0.00151707
0.00204083
0.0025918
0.00345443
0.00410925
0.00405723
0.00377984
0.00399759
0.00464632
0.00506719
0.00486551
0.00432472
0.00405624
0.00040262
0.000322972
0.000251679
0.000799747
0.00142606
0.0012675
0.00105955
0.00146097
0.00201528
0.00256873
0.00333322
0.00391296
0.00387859
0.00360223
0.00372066
0.00425158
0.00464656
0.00450889
0.00400896
0.00369746
0.00046086
0.000410556
0.000325626
0.000790016
0.00144415
0.00136019
0.00109006
0.00139474
0.00196254
0.00254023
0.0032266
0.00372013
0.00368342
0.00341118
0.0034523
0.00387372
0.00422836
0.00414122
0.0036972
0.00336197
0.000519241
0.000498661
0.000408197
0.00077578
0.00143747
0.00144976
0.00114199
0.00132835
0.00188095
0.00249324
0.00313053
0.00354179
0.00347963
0.00320556
0.00318665
0.00351128
0.00381862
0.00376627
0.003384
0.00304755
0.000578718
0.000585638
0.000498541
0.000762805
0.00140581
0.00152464
0.00121321
0.00127681
0.00177669
0.00241461
0.00303612
0.00338256
0.00327887
0.00298908
0.00291955
0.00316119
0.00342044
0.00338995
0.00306674
0.00274916
0.000639637
0.000668254
0.000594734
0.000757251
0.00135085
0.00157405
0.00129821
0.00125072
0.00166005
0.0023002
0.00292786
0.00323757
0.00309336
0.00277049
0.00265029
0.0028195
0.00303309
0.00301648
0.00274595
0.00246063
0.000702443
0.000744937
0.00069362
0.000764036
0.00127853
0.00159169
0.00138794
0.00125226
0.0015477
0.00215532
0.00279152
0.00309778
0.00292678
0.00256193
0.002383
0.00248412
0.00265466
0.00264787
0.00242423
0.0021774
0.000767232
0.000815119
0.000789886
0.000786837
0.00119881
0.00157528
0.00146801
0.00127694
0.0014539
0.00198982
0.00262145
0.00294873
0.00277455
0.00237174
0.00212591
0.00215624
0.00228434
0.00228381
0.00210313
0.0018974
0.000833502
0.000878646
0.000878541
0.000825889
0.00112424
0.00152732
0.00152472
0.00131797
0.00138431
0.00182164
0.0024223
0.00277716
0.00262929
0.00220068
0.00188798
0.00184177
0.00192339
0.00192388
0.00178163
0.00161941
0.000900608
0.000936344
0.000954859
0.000877625
0.00106492
0.00145319
0.00154971
0.0013643
0.00133784
0.00166568
0.00220373
0.00257551
0.00247801
0.00204704
0.00167332
0.0015475
0.00157559
0.00157049
0.00145997
0.00134123
0.00096772
0.000989296
0.00101778
0.000936104
0.00102518
0.00136396
0.00153997
0.00140354
0.00131075
0.00152939
0.00198286
0.00234883
0.00230716
0.00190374
0.00148286
0.00127854
0.00124647
0.00122713
0.00114065
0.00106162
0.00103358
0.00103901
0.00106816
0.000993208
0.00100469
0.0012727
0.00149823
0.00142483
0.00129708
0.00141501
0.00177328
0.00210805
0.0021111
0.00175778
0.00131576
0.00103818
0.000940823
0.000897716
0.000826872
0.000781758
0.00109658
0.00108651
0.0011077
0.00104228
0.000999746
0.00118942
0.00143
0.00142117
0.00128788
0.00132152
0.00158122
0.00186636
0.00189711
0.00159776
0.00116332
0.000828672
0.000663748
0.000587564
0.000522064
0.000503809
0.00115528
0.00113196
0.00113832
0.00107996
0.00100529
0.00111874
0.00134445
0.00139077
0.00127373
0.00124614
0.00141195
0.00163362
0.00167429
0.00142278
0.00101298
0.000647014
0.000419377
0.000302308
0.000232138
0.000232218
0.0012085
0.00117433
0.00116238
0.00110577
0.00101471
0.00106158
0.00125199
0.00133663
0.00124769
0.00118211
0.00126763
0.0014189
0.00145095
0.00124017
0.000859079
0.000482641
0.00020683
4.56975e-05
-3.63717e-05
-2.64483e-05
0.0012554
0.00121296
0.00118132
0.00112032
0.0010217
0.00101584
0.00116054
0.00126324
0.00120707
0.00112304
0.00114439
0.00122925
0.00123677
0.00105594
0.000706647
0.000329383
2.20171e-05
-0.000181391
-0.000281888
-0.000268723
0.00129522
0.0012463
0.00119622
0.00112511
0.00102264
0.000977926
0.00107404
0.00117615
0.00115082
0.00106598
0.00103859
0.00106517
0.0010421
0.000876319
0.000561242
0.000191682
-0.000135596
-0.000375019
-0.00050166
-0.000492529
0.00132749
0.00127389
0.00120626
0.00112103
0.00101552
0.00094434
0.000995026
0.00108249
0.00107947
0.00100681
0.000949624
0.000926062
0.000871661
0.00070905
0.000422556
7.06887e-05
-0.000265052
-0.000529896
-0.000685167
-0.000688473
0.00135143
0.00129424
0.00121169
0.00110975
0.000998755
0.000909949
0.000923002
0.000989708
0.000998113
0.000941488
0.000874895
0.000815532
0.000731367
0.000565767
0.000296853
-3.61274e-05
-0.00037094
-0.000651119
-0.000830427
-0.000851506
0.00136665
0.00130484
0.00121163
0.00109221
0.000973197
0.000871064
0.00085333
0.000899155
0.000912444
0.000870069
0.000806078
0.000730716
0.000629073
0.000463636
0.000206336
-0.000113577
-0.000444348
-0.000735369
-0.000936787
-0.000981687
0.00137337
0.00131014
0.00120388
0.0010671
0.000938922
0.000827357
0.000785673
0.000808803
0.000822821
0.000795632
0.000738264
0.000660985
0.000558559
0.000406015
0.000173413
-0.000131862
-0.000459132
-0.000758178
-0.000980762
-0.00105465
0.00136893
0.00130375
0.00119007
0.00103757
0.000896244
0.000775558
0.000719087
0.000722105
0.000729816
0.00071764
0.000674353
0.000600658
0.000511141
0.00038544
0.000191422
-8.07367e-05
-0.000394391
-0.000693796
-0.00093135
-0.00103131
0.00135289
0.00128355
0.00116983
0.00100234
0.00084632
0.00071557
0.000646432
0.000638392
0.000640862
0.000637599
0.000610364
0.00054482
0.000466276
0.000368025
0.000219564
-7.46244e-07
-0.00028726
-0.000588979
-0.000843185
-0.000976445
0.00132863
0.00125793
0.00113774
0.000952956
0.000790083
0.000653488
0.000569129
0.000544769
0.000555079
0.000588116
0.000628682
0.000653241
0.000661056
0.000629787
0.000535614
0.000367762
0.000116341
-0.000173137
-0.000477261
-0.000736846
0.00129289
0.00121652
0.00107081
0.000873582
0.000692451
0.000560385
0.000471695
0.000412019
0.000349445
0.000279014
0.000220288
0.000240736
0.000421661
0.000662521
0.000796693
0.000808171
0.000770419
0.00076082
0.000797099
0.000818571
0.00123889
0.00116035
0.00103173
0.000872752
0.000705182
0.000553257
0.000413158
0.000318966
0.000291099
0.000395891
0.000600795
0.000787415
0.000907066
0.000959901
0.000961007
0.000954415
0.000961547
0.000972553
0.000940025
0.000802351
0.00116586
0.00108539
0.000935679
0.000740529
0.000549514
0.000422884
0.000397
0.000475688
0.000575879
0.000651972
0.000703504
0.000707623
0.000687634
0.000672511
0.000672452
0.000725284
0.000830628
0.000966325
0.00109814
0.00115466
0.00105782
0.00101525
0.000942436
0.000845107
0.000777971
0.000696112
0.000643552
0.000634174
0.000648176
0.000661506
0.000696378
0.000730162
0.00075962
0.000805487
0.00079856
0.000694535
0.000466412
0.00011138
-0.000327799
-0.000767527
0.000890303
0.000830704
0.000858442
0.000862204
0.000821628
0.000725296
0.000641694
0.000588207
0.000580307
0.000580407
0.000608041
0.00066735
0.000703337
0.000749143
0.000809785
0.000873788
0.000955199
0.00105276
0.00114308
0.00114226
0.000797654
0.000759056
0.000835693
0.000894776
0.000917463
0.000876994
0.000800159
0.00073207
0.000711544
0.000698178
0.000697859
0.000751592
0.000804925
0.000868336
0.00097247
0.00108731
0.00118076
0.00122039
0.00116707
0.000954308
0.0448542
0.0319938
0.0184555
0.00984244
0.00625282
0.00571047
0.0059479
0.00579397
0.00506728
0.00407407
0.00319273
0.00253435
0.00192329
0.00126908
0.000659293
0.000135742
-0.000325385
-0.000733523
-0.00112492
-0.00153753
-0.00195585
-0.00238943
-0.00287997
-0.0033708
-0.00376919
-0.00412606
-0.0045519
-0.0050456
-0.00551333
-0.00589449
-0.00625196
-0.00667388
-0.00711075
-0.00747705
-0.00782712
-0.00823038
-0.00863412
-0.00899605
-0.00937223
-0.00978727
-0.0102175
-0.010669
-0.0111462
-0.0116079
-0.0120341
-0.0124499
-0.0128726
-0.0132905
-0.0137078
-0.0141554
-0.0146601
-0.0152032
-0.0157168
-0.0162142
-0.0167441
-0.0172727
-0.0177661
-0.0182825
-0.0188266
-0.0193739
-0.0199122
-0.0204692
-0.0210525
-0.0216664
-0.0223042
-0.022952
-0.0235803
-0.0241975
-0.0248292
-0.0254706
-0.0261355
-0.0268222
-0.0275381
-0.0282535
-0.0289807
-0.0297087
-0.0304612
-0.0312236
-0.0320023
-0.0327879
-0.0335856
-0.034398
-0.0352156
-0.0360405
-0.0368793
-0.0377278
-0.0386067
-0.0394769
-0.0403783
-0.0412714
-0.0422027
-0.0431569
-0.0441276
-0.045134
-0.0461377
-0.0472019
-0.0482439
-0.0493967
-0.0504055
-0.0513411
0.0426836
0.0317737
0.0185393
0.00996534
0.00633779
0.00575694
0.00597888
0.0058164
0.00508341
0.00408591
0.00320197
0.00254227
0.0019303
0.00127509
0.000664495
0.000140399
-0.000321213
-0.000729756
-0.00112147
-0.00153441
-0.00195302
-0.00238677
-0.00287756
-0.00336877
-0.00376739
-0.00412428
-0.00455019
-0.00504408
-0.00551205
-0.00589334
-0.0062508
-0.00667279
-0.00710983
-0.00747622
-0.00782627
-0.00822958
-0.00863343
-0.00899538
-0.00937154
-0.00978661
-0.0102168
-0.0106683
-0.0111456
-0.0116074
-0.0120336
-0.0124494
-0.0128721
-0.01329
-0.0137074
-0.0141549
-0.0146597
-0.0152028
-0.0157164
-0.0162138
-0.0167437
-0.0172724
-0.0177657
-0.0182822
-0.0188262
-0.0193736
-0.0199119
-0.0204689
-0.0210522
-0.0216661
-0.0223039
-0.0229517
-0.0235801
-0.0241973
-0.024829
-0.0254704
-0.0261353
-0.0268221
-0.0275379
-0.0282533
-0.0289805
-0.0297086
-0.030461
-0.0312234
-0.0320021
-0.0327877
-0.0335855
-0.0343979
-0.0352155
-0.0360404
-0.0368791
-0.0377277
-0.0386066
-0.0394768
-0.0403782
-0.0412713
-0.0422026
-0.0431569
-0.0441275
-0.045134
-0.0461376
-0.0472018
-0.0482439
-0.0493967
-0.0504055
-0.0513411
0.0411016
0.0317015
0.0187759
0.0102133
0.00648213
0.00581222
0.00600326
0.00583531
0.00510025
0.00410026
0.00321373
0.00255175
0.00193788
0.00128115
0.000669548
0.000144821
-0.000317247
-0.000726111
-0.00111813
-0.00153146
-0.00195038
-0.0023843
-0.00287535
-0.0033669
-0.00376569
-0.00412261
-0.00454863
-0.00504273
-0.0055109
-0.00589228
-0.00624973
-0.00667182
-0.00710904
-0.00747546
-0.00782548
-0.00822889
-0.00863285
-0.00899478
-0.00937092
-0.00978603
-0.0102163
-0.0106678
-0.0111451
-0.0116069
-0.0120332
-0.0124489
-0.0128717
-0.0132896
-0.0137069
-0.0141545
-0.0146592
-0.0152024
-0.0157161
-0.0162135
-0.0167434
-0.0172721
-0.0177654
-0.0182819
-0.0188259
-0.0193733
-0.0199116
-0.0204687
-0.021052
-0.0216659
-0.0223037
-0.0229515
-0.0235799
-0.0241971
-0.0248288
-0.0254702
-0.0261351
-0.0268219
-0.0275378
-0.0282532
-0.0289804
-0.0297084
-0.0304609
-0.0312233
-0.032002
-0.0327876
-0.0335854
-0.0343977
-0.0352154
-0.0360403
-0.036879
-0.0377275
-0.0386065
-0.0394767
-0.0403781
-0.0412713
-0.0422025
-0.0431568
-0.0441274
-0.0451339
-0.0461375
-0.0472018
-0.0482438
-0.0493967
-0.0504055
-0.0513411
0.039576
0.0315396
0.019028
0.0104982
0.00665821
0.00587809
0.00603114
0.0058586
0.00512201
0.00411973
0.0032305
0.0025651
0.0019481
0.00128921
0.000676178
0.000150433
-0.000312265
-0.00072143
-0.0011138
-0.00152778
-0.00194731
-0.00238148
-0.0028726
-0.0033644
-0.0037635
-0.00412068
-0.00454685
-0.00504108
-0.00550943
-0.00589097
-0.00624852
-0.00667073
-0.00710811
-0.00747455
-0.00782457
-0.00822812
-0.00863221
-0.00899413
-0.00937026
-0.00978543
-0.0102157
-0.0106672
-0.0111446
-0.0116065
-0.0120327
-0.0124485
-0.0128713
-0.0132892
-0.0137065
-0.014154
-0.0146588
-0.0152021
-0.0157157
-0.0162131
-0.0167431
-0.0172718
-0.0177651
-0.0182816
-0.0188257
-0.019373
-0.0199114
-0.0204684
-0.0210517
-0.0216656
-0.0223035
-0.0229513
-0.0235797
-0.0241969
-0.0248286
-0.02547
-0.026135
-0.0268217
-0.0275376
-0.0282531
-0.0289802
-0.0297083
-0.0304607
-0.0312231
-0.0320019
-0.0327875
-0.0335852
-0.0343976
-0.0352152
-0.0360402
-0.0368789
-0.0377274
-0.0386064
-0.0394766
-0.040378
-0.0412712
-0.0422024
-0.0431567
-0.0441273
-0.0451338
-0.0461375
-0.0472017
-0.0482437
-0.0493966
-0.0504056
-0.0513412
0.0380272
0.031263
0.0192745
0.0107963
0.00684505
0.00594777
0.00605937
0.00588376
0.00514744
0.00414429
0.00325304
0.00258341
0.00196208
0.00130046
0.000685554
0.000158233
-0.000305484
-0.000715039
-0.00110776
-0.00152268
-0.0019434
-0.00237805
-0.00286889
-0.00336059
-0.00376031
-0.00411823
-0.00454459
-0.00503864
-0.0055071
-0.0058891
-0.006247
-0.00666934
-0.00710677
-0.00747328
-0.00782343
-0.00822716
-0.00863136
-0.0089933
-0.00936947
-0.00978474
-0.0102151
-0.0106666
-0.0111441
-0.011606
-0.0120323
-0.012448
-0.0128708
-0.0132887
-0.013706
-0.0141535
-0.0146583
-0.0152017
-0.0157154
-0.0162127
-0.0167427
-0.0172715
-0.0177647
-0.0182812
-0.0188254
-0.0193727
-0.0199111
-0.0204681
-0.0210514
-0.0216653
-0.0223032
-0.0229511
-0.0235795
-0.0241967
-0.0248284
-0.0254698
-0.0261347
-0.0268215
-0.0275374
-0.0282529
-0.0289801
-0.0297081
-0.0304606
-0.031223
-0.0320017
-0.0327874
-0.0335851
-0.0343975
-0.0352151
-0.0360401
-0.0368788
-0.0377273
-0.0386063
-0.0394765
-0.0403779
-0.0412711
-0.0422023
-0.0431566
-0.0441272
-0.0451337
-0.0461374
-0.0472016
-0.0482437
-0.0493966
-0.0504058
-0.0513414
0.036473
0.0308937
0.01952
0.0111068
0.00703886
0.00601912
0.00608569
0.00590795
0.0051739
0.00417123
0.0032788
0.0026049
0.00197895
0.00131459
0.000697692
0.000168431
-0.000296635
-0.000706716
-0.00109977
-0.00151583
-0.00193839
-0.00237391
-0.00286399
-0.00335512
-0.00375588
-0.00411525
-0.00454175
-0.00503502
-0.00550341
-0.00588634
-0.00624505
-0.00666747
-0.00710481
-0.0074715
-0.00782196
-0.00822588
-0.00863018
-0.00899218
-0.00936845
-0.00978387
-0.0102143
-0.010666
-0.0111436
-0.0116055
-0.0120318
-0.0124475
-0.0128703
-0.0132881
-0.0137054
-0.014153
-0.0146578
-0.0152012
-0.015715
-0.0162123
-0.0167423
-0.0172711
-0.0177644
-0.0182809
-0.018825
-0.0193724
-0.0199107
-0.0204678
-0.0210511
-0.021665
-0.0223029
-0.0229509
-0.0235793
-0.0241965
-0.0248282
-0.0254695
-0.0261345
-0.0268213
-0.0275372
-0.0282527
-0.0289799
-0.029708
-0.0304604
-0.0312228
-0.0320016
-0.0327872
-0.033585
-0.0343974
-0.035215
-0.0360399
-0.0368787
-0.0377272
-0.0386062
-0.0394764
-0.0403778
-0.041271
-0.0422022
-0.0431565
-0.0441271
-0.0451336
-0.0461373
-0.0472015
-0.0482436
-0.0493966
-0.050406
-0.0513417
0.0349416
0.0304444
0.0197613
0.0114274
0.00723822
0.00609154
0.00610943
0.00593039
0.00520068
0.00419936
0.00330597
0.00262783
0.00199732
0.00133042
0.000711644
0.000180405
-0.000286072
-0.000696704
-0.00109004
-0.00150735
-0.00193227
-0.00236898
-0.00285785
-0.00334794
-0.00375022
-0.00411186
-0.00453846
-0.00503014
-0.00549806
-0.00588241
-0.00624248
-0.00666496
-0.00710204
-0.00746912
-0.00782012
-0.00822424
-0.0086286
-0.00899072
-0.00936711
-0.00978268
-0.0102134
-0.0106652
-0.0111429
-0.0116049
-0.0120313
-0.0124471
-0.0128697
-0.0132874
-0.0137047
-0.0141523
-0.0146572
-0.0152006
-0.0157145
-0.0162119
-0.0167419
-0.0172707
-0.0177639
-0.0182805
-0.0188246
-0.019372
-0.0199104
-0.0204674
-0.0210507
-0.0216646
-0.0223026
-0.0229506
-0.023579
-0.0241962
-0.0248279
-0.0254693
-0.0261342
-0.026821
-0.027537
-0.0282525
-0.0289797
-0.0297078
-0.0304602
-0.0312227
-0.0320014
-0.0327871
-0.0335848
-0.0343972
-0.0352149
-0.0360398
-0.0368786
-0.0377271
-0.0386061
-0.0394763
-0.0403776
-0.0412709
-0.042202
-0.0431564
-0.044127
-0.0451335
-0.0461371
-0.0472014
-0.0482435
-0.0493965
-0.0504061
-0.051342
0.0334544
0.0299187
0.0199873
0.0117538
0.00744252
0.00616566
0.00613101
0.00595094
0.00522772
0.00422857
0.00333419
0.00265171
0.00201659
0.00134716
0.00072651
0.000193348
-0.000274413
-0.000685469
-0.00107901
-0.00149768
-0.00192528
-0.00236333
-0.00285058
-0.00333928
-0.00374352
-0.00410819
-0.00453491
-0.00502426
-0.00549121
-0.00587725
-0.00623911
-0.00666163
-0.00709834
-0.00746606
-0.0078179
-0.00822223
-0.00862663
-0.00898895
-0.00936545
-0.0097811
-0.010212
-0.0106641
-0.0111419
-0.0116041
-0.0120308
-0.0124467
-0.0128691
-0.0132866
-0.0137039
-0.0141517
-0.0146565
-0.0151999
-0.0157139
-0.0162115
-0.0167415
-0.0172702
-0.0177635
-0.0182801
-0.0188242
-0.0193716
-0.01991
-0.020467
-0.0210503
-0.0216642
-0.0223023
-0.0229503
-0.0235787
-0.0241958
-0.0248276
-0.0254689
-0.0261339
-0.0268207
-0.0275367
-0.0282522
-0.0289794
-0.0297075
-0.03046
-0.0312225
-0.0320012
-0.0327869
-0.0335847
-0.0343971
-0.0352147
-0.0360397
-0.0368784
-0.0377269
-0.0386059
-0.0394761
-0.0403775
-0.0412707
-0.0422019
-0.0431563
-0.0441269
-0.0451334
-0.046137
-0.0472012
-0.0482433
-0.0493963
-0.0504063
-0.0513425
0.0320284
0.029319
0.0201855
0.0120823
0.00765319
0.00624369
0.00615166
0.00596946
0.00525461
0.00425874
0.00336346
0.00267647
0.00203655
0.00136444
0.000741811
0.000206727
-0.000262161
-0.000673445
-0.00106709
-0.00148716
-0.00191763
-0.0023571
-0.00284246
-0.00332951
-0.00373602
-0.00410431
-0.00453125
-0.0050178
-0.00548337
-0.00587117
-0.006235
-0.00665742
-0.0070937
-0.00746233
-0.00781529
-0.00821984
-0.00862431
-0.00898698
-0.00936361
-0.00977921
-0.0102103
-0.0106626
-0.0111405
-0.0116029
-0.0120301
-0.0124463
-0.0128686
-0.0132858
-0.0137031
-0.0141509
-0.0146556
-0.0151988
-0.0157131
-0.0162109
-0.0167409
-0.0172696
-0.017763
-0.0182797
-0.0188238
-0.0193711
-0.0199095
-0.0204666
-0.0210498
-0.0216637
-0.0223019
-0.02295
-0.0235783
-0.0241955
-0.0248272
-0.0254685
-0.0261335
-0.0268204
-0.0275364
-0.0282519
-0.0289791
-0.0297072
-0.0304597
-0.0312222
-0.032001
-0.0327867
-0.0335845
-0.0343969
-0.0352145
-0.0360395
-0.0368783
-0.0377268
-0.0386058
-0.039476
-0.0403774
-0.0412706
-0.0422017
-0.0431561
-0.0441267
-0.0451333
-0.0461368
-0.047201
-0.0482432
-0.0493959
-0.0504064
-0.0513431
0.0306756
0.0286508
0.0203452
0.0124113
0.00787283
0.00632776
0.00617208
0.00598518
0.00528032
0.00428946
0.00339367
0.00270201
0.00205708
0.00138212
0.000757363
0.000220288
-0.000249636
-0.000660967
-0.00105458
-0.00147603
-0.00190948
-0.00235045
-0.00283378
-0.003319
-0.00372791
-0.00410018
-0.0045275
-0.00501106
-0.00547501
-0.00586456
-0.00623035
-0.00665246
-0.0070882
-0.007458
-0.00781232
-0.00821709
-0.00862167
-0.0089849
-0.00936176
-0.0097772
-0.0102083
-0.0106607
-0.0111386
-0.0116012
-0.0120291
-0.0124458
-0.0128681
-0.0132851
-0.0137024
-0.0141503
-0.0146546
-0.0151975
-0.015712
-0.0162102
-0.0167402
-0.0172688
-0.0177625
-0.0182794
-0.0188234
-0.0193706
-0.0199091
-0.0204662
-0.0210492
-0.0216631
-0.0223014
-0.0229496
-0.0235779
-0.0241951
-0.0248269
-0.0254681
-0.0261331
-0.0268199
-0.027536
-0.0282515
-0.0289788
-0.0297069
-0.0304593
-0.0312219
-0.0320007
-0.0327864
-0.0335842
-0.0343967
-0.0352143
-0.0360393
-0.0368781
-0.0377266
-0.0386056