/*--------------------------------*- C++ -*----------------------------------*\
| =========                 |                                                 |
| \\      /  F ield         | OpenFOAM: The Open Source CFD Toolbox           |
|  \\    /   O peration     | Version:  2506                                  |
|   \\  /    A nd           | Website:  www.openfoam.com                      |
|    \\/     M anipulation  |                                                 |
\*---------------------------------------------------------------------------*/
FoamFile
{
    version     2.0;
    format      ascii;
    arch        "LSB;label=32;scalar=64";
    class       volVectorField;
    location    "4.35";
    object      U;
}
// * * * * * * * * * * * * * * * * * * * * * * * * * * * * * * * * * * * * * //

dimensions      [0 1 -1 0 0 0 0];

internalField   nonuniform List<vector> 
9600
(
(0.755383 0.000302838 0)
(1.1539 -0.00190987 0)
(0.891022 -0.0162606 0)
(1.1998 0.00806321 0)
(0.942705 0.0167259 0)
(1.06071 0.00992868 0)
(0.902734 -0.0205142 0)
(1.01628 -0.0248672 0)
(0.925431 -0.0389495 0)
(1.12011 -0.0256697 0)
(1.00774 -0.0119327 0)
(1.11758 0.00129956 0)
(0.99938 0.0119407 0)
(1.05737 0.00954465 0)
(0.975179 0.0187456 0)
(1.05346 -0.0110251 0)
(0.948119 0.00903597 0)
(1.07551 -0.0242912 0)
(0.895763 -0.00164914 0)
(1.08401 -0.0313253 0)
(0.776804 0.000949158 0)
(1.12775 -0.00273698 0)
(0.906096 -0.0169341 0)
(1.18754 0.00763567 0)
(0.965621 0.0175781 0)
(1.043 0.010469 0)
(0.942652 -0.0199915 0)
(0.986974 -0.025122 0)
(0.938499 -0.0408672 0)
(1.08344 -0.0270698 0)
(1.02017 -0.0121689 0)
(1.09676 0.00143163 0)
(1.02022 0.0127197 0)
(1.03378 0.0101517 0)
(1.00784 0.0186171 0)
(1.02196 -0.0102824 0)
(1.00586 0.00810971 0)
(1.02021 -0.0232958 0)
(0.993928 -0.00114043 0)
(0.988977 -0.0322671 0)
(0.814692 0.00146072 0)
(1.08588 -0.00351151 0)
(0.927247 -0.0175789 0)
(1.15959 0.00724461 0)
(1.0011 0.0188818 0)
(1.03229 0.0108491 0)
(0.968532 -0.0193846 0)
(0.970464 -0.0250366 0)
(0.952295 -0.0416264 0)
(1.04254 -0.0280489 0)
(1.0315 -0.0124429 0)
(1.07077 0.00154505 0)
(1.035 0.01377 0)
(1.02533 0.0106115 0)
(1.02141 0.0185247 0)
(1.03072 -0.00989403 0)
(1.02277 0.00740021 0)
(1.03487 -0.0215062 0)
(1.01498 -0.00238514 0)
(1.00906 -0.0254311 0)
(0.861032 0.00203948 0)
(1.0409 -0.00413614 0)
(0.948367 -0.0182625 0)
(1.12303 0.00674223 0)
(1.03175 0.0199025 0)
(1.03057 0.0112909 0)
(0.987533 -0.0186532 0)
(0.965903 -0.0248994 0)
(0.960164 -0.042338 0)
(1.0106 -0.0291799 0)
(1.03068 -0.0129589 0)
(1.05066 0.00153852 0)
(1.0375 0.0143989 0)
(1.02693 0.0108726 0)
(1.0305 0.0182771 0)
(1.03993 -0.00991414 0)
(1.03547 0.00725625 0)
(1.03956 -0.021367 0)
(1.0241 -0.0015925 0)
(1.01151 -0.0230272 0)
(0.907068 0.00264717 0)
(1.0049 -0.00461775 0)
(0.964605 -0.0189853 0)
(1.0872 0.00602556 0)
(1.04917 0.0205359 0)
(1.0339 0.0118307 0)
(1.0009 -0.017841 0)
(0.970412 -0.0245884 0)
(0.965166 -0.0426066 0)
(0.99099 -0.0301536 0)
(1.02071 -0.0136393 0)
(1.03606 0.00138932 0)
(1.03474 0.0146047 0)
(1.03074 0.0110016 0)
(1.03984 0.017706 0)
(1.05011 -0.00966325 0)
(1.04539 0.00667429 0)
(1.04692 -0.0201163 0)
(1.03004 -0.00145074 0)
(1.01633 -0.0203086 0)
(0.945844 0.00320146 0)
(0.98452 -0.00491847 0)
(0.974464 -0.0196888 0)
(1.0578 0.00524354 0)
(1.0541 0.0208642 0)
(1.03839 0.0123855 0)
(1.01089 -0.0170348 0)
(0.978638 -0.0241942 0)
(0.969356 -0.0426262 0)
(0.980069 -0.0309567 0)
(1.00836 -0.0143897 0)
(1.02472 0.00107662 0)
(1.03178 0.0145164 0)
(1.03573 0.010849 0)
(1.04972 0.0170232 0)
(1.05959 -0.00949244 0)
(1.05407 0.00625983 0)
(1.05217 -0.018769 0)
(1.03434 -0.0013273 0)
(1.01924 -0.0174319 0)
(0.973823 0.00363532 0)
(0.979147 -0.00502669 0)
(0.979118 -0.0202887 0)
(1.03576 0.00450646 0)
(1.05097 0.0209245 0)
(1.04185 0.0128548 0)
(1.01855 -0.016246 0)
(0.987506 -0.023715 0)
(0.97345 -0.0423773 0)
(0.974101 -0.0315465 0)
(0.997748 -0.0151214 0)
(1.01617 0.000561066 0)
(1.03052 0.0140983 0)
(1.04181 0.0104058 0)
(1.05955 0.0162098 0)
(1.06705 -0.00923327 0)
(1.06047 0.00594617 0)
(1.05485 -0.0171854 0)
(1.03648 -0.00112679 0)
(1.02045 -0.0143943 0)
(0.990942 0.00391571 0)
(0.983469 -0.00497585 0)
(0.980788 -0.0207202 0)
(1.01917 0.00382463 0)
(1.04383 0.0207466 0)
(1.04355 0.0131815 0)
(1.02414 -0.0155095 0)
(0.995727 -0.0231918 0)
(0.977303 -0.0419272 0)
(0.970895 -0.0319689 0)
(0.990215 -0.0158421 0)
(1.01065 -0.000192625 0)
(1.03143 0.0133476 0)
(1.04825 0.00970298 0)
(1.0681 0.0153582 0)
(1.07155 -0.00881221 0)
(1.06357 0.00575071 0)
(1.05454 -0.015383 0)
(1.03613 -0.000856975 0)
(1.0198 -0.0113384 0)
(0.999528 0.00404832 0)
(0.991419 -0.00482298 0)
(0.981416 -0.0209494 0)
(1.00597 0.00319687 0)
(1.03516 0.0203739 0)
(1.04348 0.0133607 0)
(1.02779 -0.0148328 0)
(1.00281 -0.0226329 0)
(0.980889 -0.0412955 0)
(0.969347 -0.0322628 0)
(0.98553 -0.0165787 0)
(1.00791 -0.00117083 0)
(1.03393 0.0123206 0)
(1.05378 0.00882973 0)
(1.07378 0.0145549 0)
(1.07234 -0.00816937 0)
(1.0627 0.00567794 0)
(1.05114 -0.0133793 0)
(1.03323 -0.000551229 0)
(1.01737 -0.00837632 0)
(1.00276 0.00406546 0)
(0.998841 -0.00462 0)
(0.982095 -0.0209792 0)
(0.995264 0.00262921 0)
(1.0264 0.0198479 0)
(1.04197 0.0133974 0)
(1.02969 -0.014225 0)
(1.00839 -0.0220607 0)
(0.984387 -0.0405042 0)
(0.968943 -0.0324597 0)
(0.9827 -0.0173401 0)
(1.00665 -0.00234877 0)
(1.03631 0.0110914 0)
(1.05665 0.00790105 0)
(1.075 0.0138645 0)
(1.0689 -0.00727678 0)
(1.05772 0.00572265 0)
(1.04495 -0.0112404 0)
(1.02812 -0.000235965 0)
(1.01348 -0.00561131 0)
(1.00338 0.00400754 0)
(1.00404 -0.00440094 0)
(0.983175 -0.0208441 0)
(0.987156 0.00212841 0)
(1.01859 0.0192039 0)
(1.03943 0.0132844 0)
(1.03015 -0.0136884 0)
(1.01221 -0.0214952 0)
(0.987939 -0.0395746 0)
(0.969499 -0.032558 0)
(0.9806 -0.0181133 0)
(1.00494 -0.00366991 0)
(1.03623 0.0097525 0)
(1.05505 0.00701739 0)
(1.07069 0.0133254 0)
(1.06122 -0.00614869 0)
(1.04915 0.00584583 0)
(1.03664 -0.00905928 0)
(1.02152 6.97393e-05 0)
(1.00865 -0.00312247 0)
(1.00308 0.00390808 0)
(1.00698 -0.00418394 0)
(0.984642 -0.0205874 0)
(0.9819 0.0016888 0)
(1.01238 0.018483 0)
(1.03625 0.0130584 0)
(1.02949 -0.013212 0)
(1.01425 -0.0209564 0)
(0.991465 -0.0385514 0)
(0.970902 -0.0325385 0)
(0.978523 -0.0188385 0)
(1.00131 -0.00504628 0)
(1.0319 0.00839542 0)
(1.04811 0.00625187 0)
(1.06088 0.0129112 0)
(1.05011 -0.00486325 0)
(1.03816 0.00597315 0)
(1.02722 -0.00694471 0)
(1.01432 0.000321238 0)
(1.0035 -0.0009748 0)
(1.00264 0.00378882 0)
(1.00832 -0.00397948 0)
(0.986401 -0.0202465 0)
(0.979219 0.0013042 0)
(1.00781 0.0177339 0)
(1.03271 0.0127524 0)
(1.02806 -0.0127822 0)
(1.01477 -0.0204714 0)
(0.994689 -0.0374773 0)
(0.972927 -0.0323868 0)
(0.976367 -0.0194249 0)
(0.995557 -0.00636614 0)
(1.02328 0.00710866 0)
(1.03665 0.00563463 0)
(1.0471 0.0125605 0)
(1.03717 -0.00353247 0)
(1.02636 0.00603327 0)
(1.01786 -0.00499224 0)
(1.00745 0.000485423 0)
(0.998648 0.000790377 0)
(1.00228 0.00366111 0)
(1.0087 -0.00379084 0)
(0.988336 -0.0198581 0)
(0.978322 0.000977241 0)
(1.00442 0.0169872 0)
(1.02899 0.012386 0)
(1.02621 -0.0123897 0)
(1.01427 -0.0200544 0)
(0.997319 -0.0363944 0)
(0.975223 -0.0321023 0)
(0.974417 -0.0198135 0)
(0.988727 -0.00750854 0)
(1.01207 0.00595953 0)
(1.02294 0.00515375 0)
(1.03187 0.0121934 0)
(1.0243 -0.00227346 0)
(1.01534 0.00596904 0)
(1.00952 -0.00327163 0)
(1.00162 0.000611239 0)
(0.994571 0.00218019 0)
(1.00202 0.00353114 0)
(1.0086 -0.0036215 0)
(0.990287 -0.019443 0)
(0.978337 0.000702912 0)
(1.0017 0.0162648 0)
(1.02536 0.0119755 0)
(1.02425 -0.0120276 0)
(1.01328 -0.0197005 0)
(0.999206 -0.0353342 0)
(0.977425 -0.0317086 0)
(0.972988 -0.0199859 0)
(0.982285 -0.00840867 0)
(1.00074 0.00496629 0)
(1.00966 0.00477354 0)
(1.01773 0.0117458 0)
(1.01307 -0.00116665 0)
(1.00623 0.00576102 0)
(1.00281 -0.00182287 0)
(0.997175 0.000721197 0)
(0.9915 0.00321852 0)
(1.00184 0.00340159 0)
(1.0083 -0.00347384 0)
(0.992074 -0.0190086 0)
(0.978673 0.000477747 0)
(0.999404 0.0155794 0)
(1.02206 0.0115327 0)
(1.0224 -0.0116896 0)
(1.01218 -0.0194012 0)
(1.00039 -0.0343064 0)
(0.979286 -0.0312323 0)
(0.972194 -0.0199596 0)
(0.977273 -0.00906036 0)
(0.991256 0.00411757 0)
(0.998741 0.00446121 0)
(1.00633 0.0111886 0)
(1.00434 -0.000245935 0)
(0.999457 0.00543682 0)
(0.99788 -0.000640475 0)
(0.994112 0.000827355 0)
(0.989442 0.00394062 0)
(1.00171 0.00327339 0)
(1.00795 -0.00334649 0)
(0.993562 -0.0185598 0)
(0.97908 0.000296181 0)
(0.997512 0.0149352 0)
(1.01929 0.0110533 0)
(1.02078 -0.0113753 0)
(1.01118 -0.0191428 0)
(1.00102 -0.0333046 0)
(0.980729 -0.0306927 0)
(0.97194 -0.0197812 0)
(0.973983 -0.0094987 0)
(0.984439 0.00338708 0)
(0.990887 0.0041939 0)
(0.998171 0.0105351 0)
(0.998169 0.000497397 0)
(0.994874 0.00504188 0)
(0.994522 0.000325494 0)
(0.992205 0.000968782 0)
(0.98824 0.00440352 0)
(1.0016 0.00314664 0)
(1.0076 -0.00323702 0)
(0.994694 -0.0180968 0)
(0.979513 0.000151177 0)
(0.996073 0.0143263 0)
(1.0171 0.0105368 0)
(1.01942 -0.0110789 0)
(1.01034 -0.0189078 0)
(1.00128 -0.0323203 0)
(0.981809 -0.0301068 0)
(0.972054 -0.0194973 0)
(0.972163 -0.0097669 0)
(0.980123 0.0027403 0)
(0.985823 0.00395441 0)
(0.992837 0.00981159 0)
(0.994115 0.00108855 0)
(0.992003 0.00461946 0)
(0.992379 0.00109334 0)
(0.991141 0.00114162 0)
(0.98768 0.0046721 0)
(1.0015 0.00302109 0)
(1.00729 -0.00314207 0)
(0.995486 -0.0176187 0)
(0.979993 3.26649e-05 0)
(0.995084 0.013741 0)
(1.01547 0.00999532 0)
(1.01828 -0.010794 0)
(1.00965 -0.0186821 0)
(1.00131 -0.0313471 0)
(0.982634 -0.0294817 0)
(0.97239 -0.0191472 0)
(0.971386 -0.00991038 0)
(0.977691 0.00214374 0)
(0.982849 0.00372408 0)
(0.989581 0.00905124 0)
(0.991595 0.00155279 0)
(0.990324 0.00421055 0)
(0.991087 0.00167439 0)
(0.990641 0.00133379 0)
(0.987562 0.00481378 0)
(1.0014 0.00289669 0)
(1.00701 -0.00305854 0)
(0.99599 -0.0171253 0)
(0.980536 -7.15996e-05 0)
(0.994478 0.0131746 0)
(1.01429 0.00942815 0)
(1.01731 -0.0105199 0)
(1.00907 -0.0184557 0)
(1.00121 -0.0303818 0)
(0.983304 -0.028824 0)
(0.972857 -0.0187583 0)
(0.971284 -0.00997035 0)
(0.976514 0.00158174 0)
(0.981278 0.00349131 0)
(0.987704 0.00828795 0)
(0.990098 0.00190863 0)
(0.989418 0.00383905 0)
(0.990362 0.00211844 0)
(0.99049 0.00153726 0)
(0.987729 0.00486293 0)
(1.00128 0.00277341 0)
(1.00679 -0.00298407 0)
(0.996278 -0.0166172 0)
(0.981144 -0.00017139 0)
(0.99416 0.0126212 0)
(1.01344 0.00884192 0)
(1.01647 -0.010253 0)
(1.00857 -0.0182223 0)
(1.00102 -0.0294244 0)
(0.983891 -0.0281395 0)
(0.973408 -0.0183507 0)
(0.97161 -0.00997301 0)
(0.976128 0.00103862 0)
(0.980598 0.00326364 0)
(0.986693 0.0075349 0)
(0.989254 0.00217796 0)
(0.988988 0.00351594 0)
(0.989998 0.00245373 0)
(0.990539 0.00174404 0)
(0.988067 0.00483921 0)
(1.00114 0.00265119 0)
(1.0066 -0.00291698 0)
(0.996419 -0.0160952 0)
(0.981804 -0.000272835 0)
(0.994035 0.012076 0)
(1.0128 0.0082426 0)
(1.01571 -0.00999122 0)
(1.00813 -0.0179745 0)
(1.00079 -0.0284743 0)
(0.984437 -0.0274318 0)
(0.974018 -0.0179343 0)
(0.9722 -0.00993903 0)
(0.976229 0.000510366 0)
(0.980462 0.00303157 0)
(0.986207 0.0068052 0)
(0.98881 0.00237323 0)
(0.988834 0.00323837 0)
(0.989856 0.00269485 0)
(0.990686 0.00195448 0)
(0.988493 0.00477301 0)
(1.00097 0.00252989 0)
(1.00645 -0.00285507 0)
(0.996475 -0.0155618 0)
(0.9825 -0.000378157 0)
(0.994029 0.0115383 0)
(1.01229 0.00763347 0)
(1.015 -0.00973404 0)
(1.00771 -0.0177066 0)
(1.00054 -0.0275324 0)
(0.984964 -0.0267039 0)
(0.974671 -0.0175158 0)
(0.972943 -0.0098787 0)
(0.976618 -7.85769e-07 0)
(0.980638 0.00278057 0)
(0.986021 0.00610729 0)
(0.988594 0.00250109 0)
(0.988827 0.00301739 0)
(0.989839 0.00285718 0)
(0.990871 0.00216309 0)
(0.988952 0.00468826 0)
(1.00079 0.00241041 0)
(1.0063 -0.00279989 0)
(0.996495 -0.0150152 0)
(0.983213 -0.00049232 0)
(0.994092 0.0110008 0)
(1.01184 0.00702379 0)
(1.0143 -0.00948488 0)
(1.0073 -0.0174164 0)
(1.00029 -0.0265992 0)
(0.98548 -0.0259611 0)
(0.975356 -0.0170978 0)
(0.973763 -0.00980069 0)
(0.977167 -0.00049865 0)
(0.980977 0.00251747 0)
(0.985996 0.00544409 0)
(0.9885 0.00256211 0)
(0.988887 0.0028423 0)
(0.989886 0.00296604 0)
(0.991061 0.00235883 0)
(0.989411 0.00458654 0)
(1.00062 0.0022924 0)
(1.00614 -0.00274927 0)
(0.996513 -0.0144589 0)
(0.983926 -0.000615996 0)
(0.994194 0.0104665 0)
(1.01139 0.00641338 0)
(1.01363 -0.00924462 0)
(1.00689 -0.0171029 0)
(1.00004 -0.0256765 0)
(0.985984 -0.0252035 0)
(0.976067 -0.0166808 0)
(0.974612 -0.00970843 0)
(0.977803 -0.000982759 0)
(0.981389 0.00224135 0)
(0.986053 0.00482473 0)
(0.988467 0.00256399 0)
(0.988978 0.00269769 0)
(0.989965 0.00302094 0)
(0.991245 0.00252542 0)
(0.989855 0.00446662 0)
(1.00046 0.0021769 0)
(1.00596 -0.00270444 0)
(0.996548 -0.013894 0)
(0.984627 -0.000743336 0)
(0.994323 0.00993767 0)
(1.01092 0.00580614 0)
(1.01297 -0.00901186 0)
(1.00647 -0.0167693 0)
(0.999808 -0.0247664 0)
(0.986474 -0.0244337 0)
(0.976798 -0.016264 0)
(0.975461 -0.00960765 0)
(0.978484 -0.00144334 0)
(0.98183 0.00195036 0)
(0.986154 0.00425035 0)
(0.988465 0.00252075 0)
(0.989083 0.0025826 0)
(0.99006 0.00303368 0)
(0.991421 0.00265683 0)
(0.990283 0.00433098 0)
(1.00033 0.00206429 0)
(1.00574 -0.00266497 0)
(0.996608 -0.013322 0)
(0.98531 -0.000876894 0)
(0.994471 0.0094077 0)
(1.01044 0.00521184 0)
(1.01231 -0.0087928 0)
(1.00603 -0.0164144 0)
(0.999593 -0.0238676 0)
(0.986951 -0.0236554 0)
(0.977544 -0.0158466 0)
(0.976299 -0.00949987 0)
(0.979191 -0.00188468 0)
(0.982281 0.00165296 0)
(0.986284 0.00371575 0)
(0.988485 0.00242861 0)
(0.9892 0.0024779 0)
(0.990165 0.00302979 0)
(0.991591 0.00276278 0)
(0.990694 0.00418519 0)
(1.00022 0.0019538 0)
(1.0055 -0.00262744 0)
(0.996693 -0.0127497 0)
(0.985976 -0.00100929 0)
(0.994634 0.00887653 0)
(1.00993 0.00463222 0)
(1.01167 -0.00858866 0)
(1.00559 -0.0160369 0)
(0.999393 -0.0229797 0)
(0.987415 -0.0228727 0)
(0.978299 -0.0154326 0)
(0.97712 -0.00937942 0)
(0.979911 -0.0023065 0)
(0.982737 0.00134591 0)
(0.986434 0.00322519 0)
(0.988522 0.00230031 0)
(0.98933 0.00238107 0)
(0.990279 0.00299834 0)
(0.991753 0.00285248 0)
(0.991086 0.00403625 0)
(1.00015 0.0018474 0)
(1.00524 -0.00259513 0)
(0.996796 -0.0121793 0)
(0.986627 -0.00114222 0)
(0.994807 0.00834762 0)
(1.00941 0.00406387 0)
(1.01103 -0.00839468 0)
(1.00514 -0.0156425 0)
(0.999206 -0.0221057 0)
(0.987871 -0.0220875 0)
(0.97906 -0.0150183 0)
(0.977925 -0.00925225 0)
(0.980637 -0.0027018 0)
(0.983198 0.00103228 0)
(0.986601 0.00278312 0)
(0.988575 0.00213818 0)
(0.989471 0.00228198 0)
(0.990402 0.00293911 0)
(0.99191 0.00291775 0)
(0.991454 0.00389088 0)
(1.0001 0.00174442 0)
(1.00497 -0.00256523 0)
(0.996912 -0.0116133 0)
(0.987268 -0.00127709 0)
(0.994987 0.00782056 0)
(1.00889 0.00351263 0)
(1.01039 -0.0082107 0)
(1.00469 -0.0152273 0)
(0.999032 -0.0212466 0)
(0.988322 -0.021303 0)
(0.979823 -0.014599 0)
(0.978715 -0.0091136 0)
(0.981366 -0.00307261 0)
(0.983668 0.000715928 0)
(0.98678 0.00238261 0)
(0.988643 0.0019517 0)
(0.989622 0.00217235 0)
(0.990535 0.00286064 0)
(0.992061 0.00294521 0)
(0.9918 0.00373771 0)
(1.00007 0.00164449 0)
(1.00469 -0.0025353 0)
(0.997035 -0.0110523 0)
(0.987901 -0.00140382 0)
(0.995169 0.00729242 0)
(1.00837 0.00297932 0)
(1.00977 -0.00804096 0)
(1.00424 -0.0147948 0)
(0.998866 -0.0204001 0)
(0.98877 -0.0205214 0)
(0.980585 -0.0141787 0)
(0.97949 -0.00896115 0)
(0.982094 -0.00341564 0)
(0.984148 0.000388884 0)
(0.986969 0.0020235 0)
(0.988727 0.00175884 0)
(0.989783 0.00205079 0)
(0.990678 0.00277157 0)
(0.992204 0.00295064 0)
(0.99212 0.00358231 0)
(1.00004 0.00154738 0)
(1.00442 -0.00250395 0)
(0.997161 -0.0104991 0)
(0.988527 -0.00152405 0)
(0.99535 0.00676595 0)
(1.00786 0.00246421 0)
(1.00915 -0.00788455 0)
(1.0038 -0.0143536 0)
(0.998709 -0.0195679 0)
(0.989214 -0.0197448 0)
(0.981344 -0.0137635 0)
(0.98025 -0.00879418 0)
(0.982817 -0.0037286 0)
(0.984644 5.10814e-05 0)
(0.987172 0.00169636 0)
(0.988823 0.00156096 0)
(0.989955 0.00190891 0)
(0.990833 0.00266875 0)
(0.992341 0.00293385 0)
(0.992413 0.0034393 0)
(1.00002 0.00145394 0)
(1.00415 -0.00247026 0)
(0.997289 -0.00995854 0)
(0.989148 -0.00163957 0)
(0.995528 0.0062457 0)
(1.00735 0.00197 0)
(1.00854 -0.00773983 0)
(1.00337 -0.0139002 0)
(0.998559 -0.0187512 0)
(0.989655 -0.0189785 0)
(0.982101 -0.0133502 0)
(0.980995 -0.00860868 0)
(0.983532 -0.0040002 0)
(0.985155 -0.000291375 0)
(0.987389 0.00139386 0)
(0.988931 0.00136373 0)
(0.990137 0.00175753 0)
(0.991003 0.00253985 0)
(0.992476 0.00289312 0)
(0.992678 0.00330407 0)
(0.999999 0.00136356 0)
(1.00388 -0.00243302 0)
(0.997418 -0.00943005 0)
(0.989762 -0.00175454 0)
(0.995702 0.00573143 0)
(1.00685 0.00149684 0)
(1.00794 -0.00760751 0)
(1.00295 -0.0134309 0)
(0.998417 -0.0179459 0)
(0.990092 -0.0182225 0)
(0.982855 -0.0129336 0)
(0.981726 -0.00840915 0)
(0.984236 -0.00422931 0)
(0.985683 -0.000636895 0)
(0.987623 0.0011142 0)
(0.989051 0.00117796 0)
(0.990328 0.00159501 0)
(0.991188 0.00239098 0)
(0.992612 0.00282878 0)
(0.992912 0.00317691 0)
(0.999982 0.00127672 0)
(1.00363 -0.00239428 0)
(0.997546 -0.00890989 0)
(0.990368 -0.00187109 0)
(0.995871 0.00522152 0)
(1.00635 0.00104946 0)
(1.00736 -0.00748697 0)
(1.00255 -0.0129521 0)
(0.998281 -0.0171529 0)
(0.990523 -0.0174836 0)
(0.983607 -0.0125269 0)
(0.982442 -0.00819917 0)
(0.984925 -0.00441939 0)
(0.986225 -0.000982501 0)
(0.987878 0.000839781 0)
(0.989179 0.00100777 0)
(0.990523 0.0014264 0)
(0.991387 0.00222631 0)
(0.992753 0.00273516 0)
(0.993116 0.00305824 0)
(0.999964 0.00119354 0)
(1.00338 -0.00235477 0)
(0.997673 -0.00839984 0)
(0.990965 -0.00198582 0)
(0.996036 0.00471883 0)
(1.00586 0.000631602 0)
(1.00679 -0.00738146 0)
(1.00216 -0.0124736 0)
(0.99815 -0.0163643 0)
(0.990947 -0.0167563 0)
(0.984355 -0.0121377 0)
(0.983144 -0.0079858 0)
(0.985597 -0.004564 0)
(0.986779 -0.00131984 0)
(0.988156 0.000575519 0)
(0.989319 0.000844582 0)
(0.99072 0.00125882 0)
(0.991597 0.00205032 0)
(0.992902 0.00260952 0)
(0.993295 0.00293668 0)
(0.999947 0.00111329 0)
(1.00314 -0.00231286 0)
(0.997799 -0.00790309 0)
(0.991552 -0.00209053 0)
(0.996199 0.00422058 0)
(1.00537 0.000243212 0)
(1.00624 -0.00728621 0)
(1.00179 -0.0120024 0)
(0.998026 -0.0155766 0)
(0.99136 -0.0160312 0)
(0.985099 -0.0117549 0)
(0.983836 -0.00777199 0)
(0.98625 -0.00466099 0)
(0.987342 -0.00163995 0)
(0.988459 0.000315912 0)
(0.989469 0.000691836 0)
(0.990919 0.00108349 0)
(0.991815 0.00186196 0)
(0.993059 0.00246455 0)
(0.993457 0.00280572 0)
(0.999931 0.00103753 0)
(1.00291 -0.00227207 0)
(0.997924 -0.0074133 0)
(0.992126 -0.00219715 0)
(0.996358 0.00372295 0)
(1.0049 -0.000112727 0)
(1.00571 -0.00719629 0)
(1.00144 -0.0115452 0)
(0.997909 -0.0148033 0)
(0.99176 -0.0153159 0)
(0.985838 -0.0113802 0)
(0.984518 -0.00755692 0)
(0.986882 -0.00472078 0)
(0.987911 -0.00193915 0)
(0.988789 5.85677e-05 0)
(0.989631 0.000556737 0)
(0.991117 0.000917455 0)
(0.992044 0.00165878 0)
(0.993228 0.00230718 0)
(0.993606 0.00266289 0)
(0.999915 0.000964346 0)
(1.00269 -0.00223249 0)
(0.998046 -0.0069291 0)
(0.992684 -0.0023033 0)
(0.996515 0.00322626 0)
(1.00443 -0.000428879 0)
(1.00519 -0.00711263 0)
(1.00111 -0.0111064 0)
(0.997801 -0.0140421 0)
(0.992146 -0.0146059 0)
(0.986569 -0.0110069 0)
(0.985193 -0.00734745 0)
(0.987493 -0.00475388 0)
(0.988482 -0.0022225 0)
(0.989149 -0.000197881 0)
(0.989806 0.000426612 0)
(0.991308 0.000765253 0)
(0.992277 0.00144981 0)
(0.993409 0.00213353 0)
(0.993749 0.00250953 0)
(0.9999 0.00089514 0)
(1.00248 -0.00219634 0)
(0.998166 -0.00645685 0)
(0.993224 -0.00239414 0)
(0.996672 0.00272467 0)
(1.00397 -0.00070927 0)
(1.0047 -0.00701913 0)
(1.00081 -0.0106884 0)
(0.997703 -0.0132946 0)
(0.992516 -0.0138964 0)
(0.98729 -0.0106323 0)
(0.985861 -0.00714511 0)
(0.988081 -0.00475913 0)
(0.989052 -0.00248003 0)
(0.989539 -0.00046137 0)
(0.989999 0.000300416 0)
(0.991495 0.000630007 0)
(0.992514 0.00123421 0)
(0.993603 0.00194163 0)
(0.993888 0.00235765 0)
(0.999885 0.00082929 0)
(1.00228 -0.00215942 0)
(0.998284 -0.00600159 0)
(0.993744 -0.00246821 0)
(0.99683 0.00222181 0)
(1.00353 -0.000965487 0)
(1.00422 -0.00690968 0)
(1.00054 -0.0102926 0)
(0.99762 -0.0125775 0)
(0.99287 -0.0131907 0)
(0.987999 -0.0102558 0)
(0.986525 -0.00694196 0)
(0.988648 -0.0047368 0)
(0.989615 -0.0027085 0)
(0.989959 -0.000730112 0)
(0.990215 0.000166423 0)
(0.991671 0.000514791 0)
(0.992747 0.0010143 0)
(0.993816 0.00172052 0)
(0.994031 0.00219615 0)
(0.999872 0.000762875 0)
(1.0021 -0.00211696 0)
(0.9984 -0.00557633 0)
(0.994243 -0.00251531 0)
(0.996988 0.00173196 0)
(1.0031 -0.00120289 0)
(1.00377 -0.00677354 0)
(1.0003 -0.00992107 0)
(0.997556 -0.011902 0)
(0.993211 -0.0124878 0)
(0.988692 -0.00986065 0)
(0.987183 -0.00673355 0)
(0.989193 -0.00469352 0)
(0.990166 -0.00291225 0)
(0.990406 -0.00100041 0)
(0.99046 1.86268e-05 0)
(0.99184 0.000409976 0)
(0.992969 0.000809602 0)
(0.994045 0.00146893 0)
(0.994188 0.00201671 0)
(0.99986 0.00070034 0)
(1.00193 -0.00207131 0)
(0.998517 -0.00519136 0)
(0.994721 -0.0025178 0)
(0.997145 0.00124389 0)
(1.0027 -0.00143862 0)
(1.00333 -0.00660671 0)
(1.00008 -0.00955755 0)
(0.997516 -0.0112627 0)
(0.993541 -0.0118022 0)
(0.989368 -0.00944833 0)
(0.987833 -0.00652659 0)
(0.989717 -0.00463602 0)
(0.990701 -0.00308601 0)
(0.990878 -0.00127043 0)
(0.990737 -0.000144827 0)
(0.992006 0.000310925 0)
(0.993169 0.000636755 0)
(0.994286 0.0012082 0)
(0.994372 0.00180137 0)
(0.999849 0.000634992 0)
(1.00176 -0.00200983 0)
(0.998637 -0.00485012 0)
(0.995172 -0.0024855 0)
(0.997296 0.00077889 0)
(1.00232 -0.00167362 0)
(1.00291 -0.00641805 0)
(0.999884 -0.00917806 0)
(0.997491 -0.010665 0)
(0.993863 -0.0111466 0)
(0.990027 -0.00902758 0)
(0.988477 -0.00631449 0)
(0.990228 -0.00456406 0)
(0.991224 -0.00322839 0)
(0.991373 -0.00153861 0)
(0.991055 -0.000334692 0)
(0.992183 0.000202217 0)
(0.993348 0.0004877 0)
(0.994518 0.000959329 0)
(0.994582 0.00153972 0)
(0.999839 0.00056713 0)
(1.00161 -0.00193455 0)
(0.998756 -0.0045516 0)
(0.995602 -0.00242852 0)
(0.997444 0.000370443 0)
(1.00196 -0.00190865 0)
(1.00252 -0.00620528 0)
(0.999709 -0.00877734 0)
(0.997489 -0.0101102 0)
(0.994185 -0.010534 0)
(0.99067 -0.00861997 0)
(0.989109 -0.00610142 0)
(0.990716 -0.00447261 0)
(0.991723 -0.00333266 0)
(0.991881 -0.00179436 0)
(0.991412 -0.000539476 0)
(0.992377 8.06164e-05 0)
(0.993513 0.000354687 0)
(0.994736 0.000742986 0)
(0.994823 0.00125493 0)
(0.999832 0.000500025 0)
(1.00147 -0.00184888 0)
(0.998879 -0.00429374 0)
(0.996011 -0.00235579 0)
(0.997581 1.81343e-05 0)
(1.00164 -0.00214006 0)
(1.00216 -0.00599678 0)
(0.999554 -0.00836628 0)
(0.997504 -0.0095718 0)
(0.994506 -0.00996176 0)
(0.9913 -0.00822714 0)
(0.989732 -0.00589643 0)
(0.991185 -0.00436836 0)
(0.992194 -0.00340414 0)
(0.992393 -0.00203752 0)
(0.991808 -0.00076088 0)
(0.992599 -5.37915e-05 0)
(0.993675 0.000220837 0)
(0.994932 0.000557958 0)
(0.995074 0.000974804 0)
(0.999826 0.000427893 0)
(1.00133 -0.00174549 0)
(0.999002 -0.00406766 0)
(0.996402 -0.00228794 0)
(0.997706 -0.000272645 0)
(1.00134 -0.00235123 0)
(1.00183 -0.00580698 0)
(0.999422 -0.00793757 0)
(0.997533 -0.00903326 0)
(0.994825 -0.00942251 0)
(0.991919 -0.00785742 0)
(0.990349 -0.00570325 0)
(0.991639 -0.00425664 0)
(0.992636 -0.00343246 0)
(0.992904 -0.0022479 0)
(0.992242 -0.000994549 0)
(0.992851 -0.000194785 0)
(0.993842 8.44739e-05 0)
(0.995114 0.000386843 0)
(0.995319 0.000735871 0)
(0.999822 0.000354693 0)
(1.0012 -0.00163127 0)
(0.999124 -0.00386436 0)
(0.996779 -0.00224211 0)
(0.99782 -0.000492706 0)
(1.00106 -0.00252534 0)
(1.00155 -0.00563823 0)
(0.999317 -0.0075083 0)
(0.997569 -0.00848418 0)
(0.995135 -0.00889634 0)
(0.992524 -0.00751947 0)
(0.990964 -0.00552871 0)
(0.992087 -0.00413958 0)
(0.99305 -0.00342345 0)
(0.993401 -0.00241849 0)
(0.992708 -0.00123866 0)
(0.993141 -0.00035651 0)
(0.994017 -4.18295e-05 0)
(0.995292 0.00021886 0)
(0.995547 0.000530849 0)
(0.999819 0.00028048 0)
(1.00108 -0.00151162 0)
(0.99924 -0.00367351 0)
(0.997144 -0.00223227 0)
(0.997926 -0.000658412 0)
(1.0008 -0.00265138 0)
(1.0013 -0.00548367 0)
(0.999243 -0.00710499 0)
(0.997617 -0.00792668 0)
(0.99543 -0.00836919 0)
(0.99311 -0.00720126 0)
(0.99158 -0.00537468 0)
(0.992533 -0.00403081 0)
(0.993439 -0.00338716 0)
(0.993875 -0.0025439 0)
(0.993194 -0.00147299 0)
(0.993474 -0.000545183 0)
(0.994208 -0.00016468 0)
(0.995466 5.48535e-05 0)
(0.995763 0.000339184 0)
(0.999817 0.000207117 0)
(1.00096 -0.00138774 0)
(0.999347 -0.00348922 0)
(0.997498 -0.00225435 0)
(0.998028 -0.000794385 0)
(1.00055 -0.00272138 0)
(1.00108 -0.00533408 0)
(0.999203 -0.00673026 0)
(0.997677 -0.00737064 0)
(0.995704 -0.00783645 0)
(0.99367 -0.00688656 0)
(0.992193 -0.00525016 0)
(0.992988 -0.00394823 0)
(0.993814 -0.00333187 0)
(0.994322 -0.00262155 0)
(0.993687 -0.00167537 0)
(0.993848 -0.000745724 0)
(0.99442 -0.000292667 0)
(0.995639 -9.15756e-05 0)
(0.995975 0.000151223 0)
(0.999816 0.000135128 0)
(1.00084 -0.00126739 0)
(0.999441 -0.00329886 0)
(0.997841 -0.00231332 0)
(0.998131 -0.000910825 0)
(1.00031 -0.00271335 0)
(1.00088 -0.00518265 0)
(0.999201 -0.00640552 0)
(0.997756 -0.0068449 0)
(0.995956 -0.00728823 0)
(0.994191 -0.00655345 0)
(0.992795 -0.00513458 0)
(0.993454 -0.00388422 0)
(0.994183 -0.00327536 0)
(0.994744 -0.00266004 0)
(0.994175 -0.00184076 0)
(0.994255 -0.000949933 0)
(0.994663 -0.000437994 0)
(0.995808 -0.000220554 0)
(0.996185 -3.54506e-05 0)
(0.999816 6.94747e-05 0)
(1.00073 -0.00116337 0)
(0.999515 -0.00309612 0)
(0.998171 -0.00239975 0)
(0.998246 -0.00102307 0)
(1.00008 -0.00263615 0)
(1.0007 -0.00499653 0)
(0.999232 -0.00613134 0)
(0.997863 -0.00637527 0)
(0.996191 -0.00673944 0)
(0.994669 -0.00619935 0)
(0.993376 -0.00500746 0)
(0.993928 -0.00383504 0)
(0.994553 -0.00322503 0)
(0.995145 -0.00267199 0)
(0.994647 -0.00196673 0)
(0.994681 -0.00114045 0)
(0.994941 -0.000597137 0)
(0.995981 -0.000339628 0)
(0.996388 -0.00020437 0)
(0.999815 1.14246e-05 0)
(1.00063 -0.00107621 0)
(0.999569 -0.0028827 0)
(0.998483 -0.00248462 0)
(0.998379 -0.00114597 0)
(0.999867 -0.00252127 0)
(1.00052 -0.00476106 0)
(0.999283 -0.00588977 0)
(0.998002 -0.00597415 0)
(0.996417 -0.00621361 0)
(0.995099 -0.00580865 0)
(0.993926 -0.00485699 0)
(0.994404 -0.00379948 0)
(0.994929 -0.00319174 0)
(0.995531 -0.00267608 0)
(0.995101 -0.00206314 0)
(0.995116 -0.00130942 0)
(0.995251 -0.000764808 0)
(0.996165 -0.000459731 0)
(0.996576 -0.000348838 0)
(0.999812 -3.70968e-05 0)
(1.00054 -0.00100667 0)
(0.999604 -0.00265858 0)
(0.998774 -0.00255584 0)
(0.998532 -0.00129332 0)
(0.999675 -0.00238797 0)
(1.00033 -0.00447257 0)
(0.999341 -0.00565166 0)
(0.998177 -0.00565943 0)
(0.996651 -0.00574581 0)
(0.995486 -0.00539351 0)
(0.994428 -0.00466491 0)
(0.99487 -0.00375704 0)
(0.99531 -0.00316877 0)
(0.995907 -0.00267099 0)
(0.995536 -0.00213366 0)
(0.995548 -0.00144999 0)
(0.995587 -0.000930851 0)
(0.996371 -0.000588148 0)
(0.996753 -0.000473624 0)
(0.999809 -7.21782e-05 0)
(1.00047 -0.000957871 0)
(0.99962 -0.00241895 0)
(0.999036 -0.00259979 0)
(0.998707 -0.0014661 0)
(0.999518 -0.00226075 0)
(1.00014 -0.00414022 0)
(0.999386 -0.0053813 0)
(0.998374 -0.00540873 0)
(0.996905 -0.00535571 0)
(0.995842 -0.00499332 0)
(0.994879 -0.00442762 0)
(0.995312 -0.00368843 0)
(0.995693 -0.00315633 0)
(0.996275 -0.00266936 0)
(0.995954 -0.00218987 0)
(0.99597 -0.00156642 0)
(0.995935 -0.00108129 0)
(0.996599 -0.000723506 0)
(0.996922 -0.000585434 0)
(0.999803 -9.36714e-05 0)
(1.0004 -0.000927764 0)
(0.999622 -0.0021693 0)
(0.999262 -0.00260223 0)
(0.998899 -0.00164822 0)
(0.999404 -0.00215959 0)
(0.999942 -0.0037926 0)
(0.999406 -0.00507359 0)
(0.998579 -0.00518138 0)
(0.997183 -0.00504985 0)
(0.996186 -0.00463156 0)
(0.995281 -0.00415773 0)
(0.995712 -0.003574 0)
(0.996063 -0.00313645 0)
(0.996639 -0.0026764 0)
(0.996357 -0.00223775 0)
(0.996381 -0.00167025 0)
(0.996287 -0.00121371 0)
(0.996849 -0.000861112 0)
(0.997096 -0.000696534 0)
(0.999796 -0.000100735 0)
(1.00035 -0.000912038 0)
(0.999616 -0.00193045 0)
(0.999448 -0.00254755 0)
(0.999103 -0.00183448 0)
(0.99934 -0.00209558 0)
(0.999757 -0.00345192 0)
(0.999396 -0.00472616 0)
(0.998772 -0.00494333 0)
(0.997481 -0.00481771 0)
(0.996536 -0.00432881 0)
(0.995651 -0.00389149 0)
(0.996068 -0.00341902 0)
(0.996407 -0.00308596 0)
(0.996991 -0.00268057 0)
(0.996746 -0.00227758 0)
(0.996781 -0.00175803 0)
(0.996637 -0.0013295 0)
(0.997109 -0.000987186 0)
(0.997277 -0.000809781 0)
(0.999789 -9.64177e-05 0)
(1.00032 -0.000900581 0)
(0.999609 -0.00171361 0)
(0.999591 -0.00242797 0)
(0.999305 -0.00200362 0)
(0.999329 -0.00209108 0)
(0.999597 -0.00313911 0)
(0.999361 -0.00435313 0)
(0.998935 -0.00467391 0)
(0.997782 -0.00461191 0)
(0.996897 -0.00409635 0)
(0.996002 -0.00364465 0)
(0.996384 -0.00324337 0)
(0.996714 -0.00300212 0)
(0.997321 -0.00266717 0)
(0.997121 -0.00231473 0)
(0.997169 -0.00183595 0)
(0.996985 -0.00143847 0)
(0.997375 -0.00110143 0)
(0.997467 -0.000920533 0)
(0.99978 -8.43004e-05 0)
(1.0003 -0.000884958 0)
(0.999608 -0.00152664 0)
(0.999693 -0.0022589 0)
(0.999491 -0.00211865 0)
(0.999368 -0.0021374 0)
(0.999474 -0.00286849 0)
(0.99931 -0.00398165 0)
(0.999063 -0.00437732 0)
(0.998067 -0.00440062 0)
(0.997267 -0.00392624 0)
(0.996352 -0.00343804 0)
(0.996669 -0.00305961 0)
(0.996982 -0.00289311 0)
(0.997616 -0.00262769 0)
(0.997471 -0.0023393 0)
(0.997542 -0.00190627 0)
(0.997327 -0.00153809 0)
(0.997645 -0.001212 0)
(0.997662 -0.0010244 0)
(0.999773 -6.6449e-05 0)
(1.00029 -0.000863237 0)
(0.999618 -0.00137246 0)
(0.999764 -0.002066 0)
(0.999647 -0.00215994 0)
(0.999448 -0.00220424 0)
(0.999399 -0.00264921 0)
(0.999253 -0.0036229 0)
(0.999157 -0.00406069 0)
(0.998321 -0.00417349 0)
(0.997633 -0.00377785 0)
(0.996712 -0.0032924 0)
(0.996938 -0.00288538 0)
(0.997214 -0.0027663 0)
(0.997876 -0.00256845 0)
(0.99779 -0.00234022 0)
(0.997896 -0.00196515 0)
(0.99766 -0.00162425 0)
(0.997918 -0.00131788 0)
(0.997864 -0.00112279 0)
(0.999766 -4.76121e-05 0)
(1.00028 -0.00082904 0)
(0.999642 -0.0012495 0)
(0.999813 -0.00187547 0)
(0.99977 -0.00212946 0)
(0.999554 -0.00226121 0)
(0.999376 -0.0024878 0)
(0.999203 -0.00328743 0)
(0.999222 -0.00373319 0)
(0.998538 -0.00392463 0)
(0.997978 -0.0036194 0)
(0.997081 -0.00318741 0)
(0.997212 -0.00274769 0)
(0.997418 -0.0026268 0)