/*--------------------------------*- C++ -*----------------------------------*\
| =========                 |                                                 |
| \\      /  F ield         | OpenFOAM: The Open Source CFD Toolbox           |
|  \\    /   O peration     | Version:  2506                                  |
|   \\  /    A nd           | Website:  www.openfoam.com                      |
|    \\/     M anipulation  |                                                 |
\*---------------------------------------------------------------------------*/
FoamFile
{
    version     2.0;
    format      ascii;
    arch        "LSB;label=32;scalar=64";
    class       volVectorField;
    location    "2.05";
    object      U;
}
// * * * * * * * * * * * * * * * * * * * * * * * * * * * * * * * * * * * * * //

dimensions      [0 1 -1 0 0 0 0];

internalField   nonuniform List<vector> 
9600
(
(0.846276 0.000187544 0)
(1.14991 -0.00250662 0)
(0.894314 0.00791292 0)
(1.12005 -0.000818134 0)
(0.779698 -0.00713352 0)
(1.1854 -0.00278557 0)
(0.883475 -0.00275503 0)
(1.09902 0.00798101 0)
(0.895535 0.00795818 0)
(1.07678 0.00204086 0)
(0.861698 0.00569342 0)
(1.09633 -0.0123437 0)
(0.839688 -0.00351646 0)
(1.13231 -0.00471851 0)
(0.83207 -0.00525297 0)
(1.13235 -0.00133989 0)
(0.845632 -0.00227999 0)
(1.11912 0.00138586 0)
(0.843768 0.00320924 0)
(1.10852 0.00550727 0)
(0.85601 0.000110969 0)
(1.13884 -0.0026798 0)
(0.9017 0.00788091 0)
(1.10691 0.000452331 0)
(0.799986 -0.00803191 0)
(1.16755 -0.00368398 0)
(0.89885 -0.0019748 0)
(1.08641 0.00816243 0)
(0.913384 0.00804992 0)
(1.05804 0.00279408 0)
(0.890365 0.00509893 0)
(1.06626 -0.0115949 0)
(0.875362 -0.00472362 0)
(1.08992 -0.00432251 0)
(0.885526 -0.0055765 0)
(1.07629 -0.00152064 0)
(0.917899 -0.00176714 0)
(1.04054 0.000896592 0)
(0.945812 0.00473995 0)
(0.99116 0.00427329 0)
(0.874915 8.36519e-05 0)
(1.11783 -0.00284822 0)
(0.916393 0.00803059 0)
(1.08621 0.00134387 0)
(0.83629 -0.00880229 0)
(1.13456 -0.00438058 0)
(0.927386 -0.00135266 0)
(1.0611 0.00813913 0)
(0.940189 0.00831993 0)
(1.03099 0.00316343 0)
(0.928222 0.00483984 0)
(1.03306 -0.011269 0)
(0.922781 -0.00519663 0)
(1.04196 -0.00445059 0)
(0.944661 -0.00526044 0)
(1.02331 -0.00229322 0)
(0.971152 -0.000974176 0)
(0.996929 0.000441785 0)
(0.980427 0.00546296 0)
(0.975937 0.00505554 0)
(0.900206 7.38695e-05 0)
(1.09045 -0.00299773 0)
(0.935276 0.00817857 0)
(1.06307 0.0020048 0)
(0.88048 -0.0092796 0)
(1.09391 -0.00508104 0)
(0.959224 -0.000739317 0)
(1.03276 0.00810338 0)
(0.963433 0.00861188 0)
(1.00833 0.00330753 0)
(0.958265 0.00473264 0)
(1.01064 -0.0111441 0)
(0.957977 -0.00530896 0)
(1.01185 -0.00488123 0)
(0.979029 -0.00488783 0)
(1.00032 -0.00281327 0)
(0.990003 -0.00046793 0)
(0.990537 0.000467286 0)
(0.984978 0.00575584 0)
(0.982118 0.00604571 0)
(0.927568 9.5366e-05 0)
(1.06188 -0.00313452 0)
(0.954245 0.00828798 0)
(1.04235 0.00245546 0)
(0.922454 -0.00953914 0)
(1.05555 -0.00576111 0)
(0.984133 -0.000222576 0)
(1.01117 0.00817238 0)
(0.978207 0.0088555 0)
(0.996235 0.00336261 0)
(0.97627 0.00464005 0)
(1.00154 -0.0110801 0)
(0.976645 -0.00533099 0)
(0.999583 -0.0052837 0)
(0.992358 -0.00466041 0)
(0.995686 -0.00304846 0)
(0.994545 -0.000225751 0)
(0.992609 0.000642382 0)
(0.987237 0.00599357 0)
(0.984683 0.0068541 0)
(0.952627 0.000138048 0)
(1.03706 -0.00323955 0)
(0.969999 0.0083622 0)
(1.02727 0.00270227 0)
(0.955445 -0.00960693 0)
(1.02667 -0.00631465 0)
(0.997811 0.000159785 0)
(0.999527 0.00834249 0)
(0.986511 0.00901528 0)
(0.993253 0.0033633 0)
(0.986192 0.0045111 0)
(1.00067 -0.0110179 0)
(0.985154 -0.00530671 0)
(0.996233 -0.00557753 0)
(0.99613 -0.00457057 0)
(0.995776 -0.00314695 0)
(0.995914 -5.9908e-05 0)
(0.993714 0.000823441 0)
(0.989267 0.0062183 0)
(0.985746 0.00760374 0)
(0.972392 0.000188899 0)
(1.0189 -0.00329689 0)
(0.981128 0.00837653 0)
(1.01826 0.00278596 0)
(0.977807 -0.00952182 0)
(1.00902 -0.0066945 0)
(1.00194 0.000386041 0)
(0.995163 0.00853261 0)
(0.9918 0.00908554 0)
(0.995082 0.00332866 0)
(0.992485 0.00436363 0)
(1.00272 -0.0109283 0)
(0.989462 -0.00521447 0)
(0.995826 -0.00580669 0)
(0.996819 -0.00452496 0)
(0.995809 -0.00319203 0)
(0.996338 3.66169e-05 0)
(0.993919 0.00108251 0)
(0.990209 0.00639393 0)
(0.98667 0.00833079 0)
(0.98592 0.000235582 0)
(1.00764 -0.00330696 0)
(0.988053 0.00832301 0)
(1.01368 0.00276539 0)
(0.991332 -0.00934059 0)
(1.00025 -0.00691133 0)
(1.00072 0.000488172 0)
(0.994094 0.00866419 0)
(0.995825 0.00908315 0)
(0.998301 0.00327407 0)
(0.997267 0.00422354 0)
(1.00491 -0.0107926 0)
(0.992365 -0.00507388 0)
(0.996113 -0.00596508 0)
(0.996695 -0.00447571 0)
(0.995224 -0.00322089 0)
(0.995985 7.52193e-05 0)
(0.993711 0.0014288 0)
(0.990507 0.00648274 0)
(0.987528 0.00899346 0)
(0.993994 0.000271085 0)
(1.00171 -0.00328116 0)
(0.992098 0.00821994 0)
(1.01143 0.00268318 0)
(0.998827 -0.00910961 0)
(0.9968 -0.00699202 0)
(0.997778 0.000524409 0)
(0.993845 0.00870301 0)
(0.99889 0.00902228 0)
(1.00115 0.00320052 0)
(1.00101 0.00410271 0)
(1.0064 -0.0106113 0)
(0.994659 -0.0049082 0)
(0.996493 -0.00603216 0)
(0.99641 -0.00442546 0)
(0.99433 -0.00320471 0)
(0.995098 7.95656e-05 0)
(0.993144 0.0017964 0)
(0.990526 0.00648477 0)
(0.98831 0.00958325 0)
(0.998218 0.000295062 0)
(0.999005 -0.00323469 0)
(0.994527 0.00809116 0)
(1.0101 0.00256658 0)
(1.00267 -0.00885612 0)
(0.995838 -0.00697182 0)
(0.995107 0.000537884 0)
(0.993619 0.0086526 0)
(1.00101 0.00891406 0)
(1.0031 0.00310604 0)
(1.00369 0.00400291 0)
(1.0072 -0.0103919 0)
(0.996436 -0.00473121 0)
(0.996851 -0.00601265 0)
(0.996159 -0.00437588 0)
(0.993458 -0.00311308 0)
(0.994037 3.94302e-05 0)
(0.992355 0.00215455 0)
(0.990371 0.00643598 0)
(0.988962 0.0100749 0)
(1.00016 0.000311099 0)
(0.9979 -0.00318051 0)
(0.996111 0.00795254 0)
(1.00913 0.00243588 0)
(1.00445 -0.00859644 0)
(0.995778 -0.00688694 0)
(0.993331 0.000548024 0)
(0.993412 0.00853436 0)
(1.00237 0.00877103 0)
(1.00424 0.0029957 0)
(1.00538 0.00391772 0)
(1.00753 -0.0101398 0)
(0.997687 -0.0045558 0)
(0.997166 -0.0059209 0)
(0.996005 -0.00432058 0)
(0.992806 -0.00294299 0)
(0.99311 -4.23243e-05 0)
(0.99158 0.0025116 0)
(0.990135 0.00636608 0)
(0.989449 0.0104216 0)
(1.00094 0.000323144 0)
(0.997462 -0.00312628 0)
(0.997201 0.00781153 0)
(1.00841 0.00230335 0)
(1.00512 -0.00833653 0)
(0.995913 -0.00676462 0)
(0.992404 0.000560525 0)
(0.993337 0.00837083 0)
(1.00322 0.00860502 0)
(1.00486 0.00287633 0)
(1.0063 0.00383953 0)
(1.00759 -0.00985733 0)
(0.998481 -0.00439621 0)
(0.997415 -0.00576219 0)
(0.995956 -0.00427521 0)
(0.992431 -0.00270294 0)
(0.992485 -0.000131458 0)
(0.991008 0.00286159 0)
(0.98995 0.00630241 0)
(0.989815 0.0105998 0)
(1.00121 0.000334097 0)
(0.997266 -0.00307482 0)
(0.997952 0.00766902 0)
(1.00792 0.00217426 0)
(1.00524 -0.00807509 0)
(0.996006 -0.00662184 0)
(0.992072 0.000574322 0)
(0.993418 0.0081789 0)
(1.00377 0.00842318 0)
(1.00518 0.00275495 0)
(1.00669 0.00376238 0)
(1.00749 -0.00954653 0)
(0.998944 -0.00426145 0)
(0.99758 -0.0055433 0)
(0.995997 -0.00425238 0)
(0.992291 -0.00241169 0)
(0.992195 -0.000213883 0)
(0.990715 0.00318268 0)
(0.989913 0.00627932 0)
(0.990147 0.0106217 0)
(1.00127 0.000345496 0)
(0.997154 -0.00302613 0)
(0.998458 0.00752263 0)
(1.00763 0.00205063 0)
(1.00515 -0.00780978 0)
(0.996021 -0.00646797 0)
(0.992092 0.000584518 0)
(0.993605 0.00797075 0)
(1.00412 0.008229 0)
(1.00534 0.00263844 0)
(1.00677 0.00368188 0)
(1.00731 -0.00920848 0)
(0.999212 -0.00415429 0)
(0.997663 -0.00527502 0)
(0.9961 -0.0042522 0)
(0.992309 -0.00208288 0)
(0.992179 -0.000288572 0)
(0.990684 0.00345229 0)
(0.990043 0.00632376 0)
(0.990511 0.0105192 0)
(1.00127 0.00035786 0)
(0.997078 -0.00297909 0)
(0.9988 0.00737003 0)
(1.00744 0.00193236 0)
(1.005 -0.00753868 0)
(0.995992 -0.0063084 0)
(0.99229 0.000587071 0)
(0.993833 0.00775426 0)
(1.00434 0.00802497 0)
(1.0054 0.00252919 0)
(1.00668 0.003595 0)
(1.0071 -0.00884272 0)
(0.999388 -0.00407461 0)
(0.997685 -0.00496565 0)
(0.996243 -0.00426779 0)
(0.992417 -0.00174048 0)
(0.992341 -0.000331822 0)
(0.990848 0.00364866 0)
(0.990305 0.00644213 0)
(0.990921 0.0103317 0)
(1.00127 0.000371079 0)
(0.99703 -0.00293232 0)
(0.999036 0.00720986 0)
(1.00728 0.00181864 0)
(1.00486 -0.00726225 0)
(0.995968 -0.00614377 0)
(0.992565 0.000579836 0)
(0.994057 0.00753511 0)
(1.00445 0.00781038 0)
(1.00539 0.00243009 0)
(1.00651 0.00349752 0)
(1.00688 -0.00844911 0)
(0.999533 -0.00401862 0)
(0.997669 -0.00462693 0)
(0.996406 -0.00428961 0)
(0.992572 -0.00139613 0)
(0.992596 -0.000322206 0)
(0.991136 0.00376195 0)
(0.990646 0.00662081 0)
(0.991362 0.0101001 0)
(1.00128 0.000384689 0)
(0.997013 -0.00288453 0)
(0.999207 0.00704167 0)
(1.0071 0.00170917 0)
(1.00475 -0.00698264 0)
(0.995981 -0.00597178 0)
(0.992867 0.000561454 0)
(0.994257 0.00731835 0)
(1.00448 0.00758292 0)
(1.00534 0.00234392 0)
(1.00628 0.00338679 0)
(1.00665 -0.00802992 0)
(0.999675 -0.00398406 0)
(0.997638 -0.00426057 0)
(0.996577 -0.00431843 0)
(0.99275 -0.00106118 0)
(0.992882 -0.000242295 0)
(0.991495 0.0038014 0)
(0.991021 0.00683128 0)
(0.991809 0.00986151 0)
(1.00129 0.000398147 0)
(0.997031 -0.00283465 0)
(0.999333 0.00686547 0)
(1.00689 0.00160449 0)
(1.00465 -0.00670233 0)
(0.996046 -0.00579044 0)
(0.993176 0.000530825 0)
(0.994435 0.0071061 0)
(1.00445 0.00734418 0)
(1.00525 0.00226823 0)
(1.00601 0.00326474 0)
(1.00642 -0.00758895 0)
(0.99982 -0.00396719 0)
(0.997606 -0.00387533 0)
(0.996745 -0.00433704 0)
(0.992945 -0.000772511 0)
(0.993164 -9.33735e-05 0)
(0.991892 0.00378245 0)
(0.991403 0.00704051 0)
(0.992246 0.00964293 0)
(1.00129 0.000410859 0)
(0.997085 -0.00278165 0)
(0.999426 0.0066813 0)
(1.00666 0.00150499 0)
(1.00454 -0.00642441 0)
(0.996159 -0.00559797 0)
(0.993484 0.000487931 0)
(0.994604 0.00690078 0)
(1.00437 0.00709274 0)
(1.00514 0.00220379 0)
(1.00572 0.00313079 0)
(1.0062 -0.00713084 0)
(0.999965 -0.00396037 0)
(0.997583 -0.0034904 0)
(0.996904 -0.00431771 0)
(0.993157 -0.000535568 0)
(0.993428 0.00012329 0)
(0.992312 0.0037269 0)
(0.991782 0.0072248 0)
(0.992665 0.00946729 0)
(1.00127 0.000422232 0)
(0.997176 -0.00272473 0)
(0.99949 0.00648922 0)
(1.00644 0.00141206 0)
(1.0044 -0.00615292 0)
(0.99631 -0.00539277 0)
(0.993784 0.000432283 0)
(0.994779 0.00670381 0)
(1.00426 0.00682799 0)
(1.00505 0.00215029 0)
(1.00541 0.00299007 0)
(1.00598 -0.00666387 0)
(1.0001 -0.00395496 0)
(0.997572 -0.00311283 0)
(0.997047 -0.00425616 0)
(0.993393 -0.000345754 0)
(0.993669 0.000396534 0)
(0.992747 0.00365047 0)
(0.992158 0.00736369 0)
(0.993063 0.00934652 0)
(1.00122 0.000431962 0)
(0.997304 -0.00266343 0)
(0.999523 0.00628879 0)
(1.00623 0.00132791 0)
(1.00424 -0.00589091 0)
(0.996489 -0.00517319 0)
(0.99407 0.000362847 0)
(0.994972 0.00651548 0)
(1.00411 0.00655255 0)
(1.00497 0.00210289 0)
(1.00508 0.00284741 0)
(1.00576 -0.00619695 0)
(1.00023 -0.00394239 0)
(0.997576 -0.00275147 0)
(0.997171 -0.00415462 0)
(0.993654 -0.000199265 0)
(0.993888 0.000699953 0)
(0.993195 0.00356515 0)
(0.992536 0.00744151 0)
(0.993437 0.00927861 0)
(1.00115 0.000439607 0)
(0.997466 -0.00259688 0)
(0.999529 0.00607889 0)
(1.00604 0.00125331 0)
(1.00405 -0.00563971 0)
(0.996687 -0.00493771 0)
(0.994339 0.000281397 0)
(0.995186 0.00633606 0)
(1.00395 0.00626988 0)
(1.0049 0.00205565 0)
(1.00475 0.00270254 0)
(1.00556 -0.00573824 0)
(1.00035 -0.00391717 0)
(0.997595 -0.00241102 0)
(0.997278 -0.00400528 0)
(0.993943 -9.23502e-05 0)
(0.99409 0.0010251 0)
(0.99365 0.00348636 0)
(0.992924 0.00745127 0)
(0.993789 0.00925437 0)
(1.00106 0.000444521 0)
(0.997657 -0.00252354 0)
(0.999511 0.00585814 0)
(1.00587 0.00119045 0)
(1.00384 -0.00540188 0)
(0.996896 -0.00468602 0)
(0.994591 0.000186074 0)
(0.995418 0.00616426 0)
(1.00376 0.00598345 0)
(1.00485 0.00201107 0)
(1.0044 0.00256201 0)
(1.00535 -0.00529596 0)
(1.00046 -0.00387229 0)
(0.997626 -0.002088 0)
(0.99737 -0.00380731 0)
(0.994257 -1.5296e-05 0)
(0.994281 0.00136258 0)
(0.994103 0.00342547 0)
(0.993327 0.00739041 0)
(0.994119 0.00925624 0)
(1.00095 0.000446408 0)
(0.997867 -0.00244313 0)
(0.99948 0.0056266 0)
(1.00571 0.00114142 0)
(1.00363 -0.00517868 0)
(0.997106 -0.00442203 0)
(0.99483 8.22134e-05 0)
(0.995658 0.00599265 0)
(1.00357 0.00569921 0)
(1.00479 0.00196296 0)
(1.00406 0.00243937 0)
(1.00514 -0.00486936 0)
(1.00058 -0.00381048 0)
(0.997669 -0.00178615 0)
(0.997452 -0.00356903 0)
(0.994593 3.92159e-05 0)
(0.99447 0.00170244 0)
(0.994544 0.00339195 0)
(0.993751 0.00725892 0)
(0.99443 0.00926363 0)
(1.00083 0.000445129 0)
(0.998083 -0.00235558 0)
(0.999448 0.00538309 0)
(1.00555 0.00110712 0)
(1.00341 -0.0049705 0)
(0.997311 -0.00414509 0)
(0.995064 -2.91941e-05 0)
(0.995897 0.00582228 0)
(1.00337 0.00542089 0)
(1.00474 0.00189622 0)
(1.00374 0.00234107 0)
(1.00492 -0.00445723 0)
(1.0007 -0.00373569 0)
(0.997721 -0.00150205 0)
(0.997531 -0.0032959 0)
(0.99495 6.86381e-05 0)
(0.994666 0.00203598 0)
(0.994965 0.00339601 0)
(0.994199 0.007059 0)
(0.994728 0.00926182 0)
(1.00073 0.000439883 0)
(0.998293 -0.00225888 0)
(0.999426 0.00512613 0)
(1.00539 0.00108775 0)
(1.00322 -0.0047781 0)
(0.997504 -0.0038564 0)
(0.995299 -0.000144386 0)
(0.996126 0.00565056 0)
(1.00318 0.00515416 0)
(1.00468 0.00180862 0)
(1.00343 0.00226102 0)
(1.00469 -0.00405723 0)
(1.00084 -0.00364773 0)
(0.997783 -0.00122856 0)
(0.997608 -0.00298264 0)
(0.995324 8.12879e-05 0)
(0.994877 0.00235688 0)
(0.995356 0.00345003 0)
(0.994671 0.00679637 0)
(0.995023 0.00923095 0)
(1.00063 0.000430403 0)
(0.998486 -0.00215293 0)
(0.999424 0.0048568 0)
(1.0052 0.00108286 0)
(1.00304 -0.00459841 0)
(0.997682 -0.00356334 0)
(0.995541 -0.000257997 0)
(0.99634 0.00546495 0)
(1.00299 0.00491179 0)
(1.0046 0.00169886 0)
(1.00315 0.00219215 0)
(1.00444 -0.0036575 0)
(1.00098 -0.00355436 0)
(0.997856 -0.000974496 0)
(0.997686 -0.00262693 0)
(0.995712 8.3801e-05 0)
(0.995113 0.00264651 0)
(0.995711 0.00356092 0)
(0.995161 0.00648744 0)
(0.995332 0.00913659 0)
(1.00055 0.000417048 0)
(0.998658 -0.00203816 0)
(0.999445 0.00457484 0)
(1.005 0.00108919 0)
(1.00289 -0.00442997 0)
(0.997846 -0.00326432 0)
(0.995792 -0.000367425 0)
(0.99654 0.00526044 0)
(1.00281 0.00469679 0)
(1.00451 0.00157413 0)
(1.00289 0.0021335 0)
(1.00417 -0.00325578 0)
(1.00114 -0.00345887 0)
(0.997944 -0.000735461 0)
(0.997761 -0.00223349 0)
(0.99611 7.92101e-05 0)
(0.99538 0.00288154 0)
(0.996028 0.00372909 0)
(0.995657 0.0061682 0)
(0.995672 0.00894024 0)
(1.00049 0.000399187 0)
(0.998805 -0.00191309 0)
(0.999487 0.00427861 0)
(1.00478 0.00110976 0)
(1.00275 -0.00427233 0)
(0.997997 -0.00296605 0)
(0.996054 -0.000459915 0)
(0.996731 0.00502648 0)
(1.00263 0.00451472 0)
(1.00441 0.0014342 0)
(1.00265 0.00207806 0)
(1.00389 -0.00284374 0)
(1.0013 -0.00335676 0)
(0.99805 -0.000517141 0)
(0.99783 -0.00180482 0)
(0.996511 8.33919e-05 0)
(0.995683 0.00304996 0)
(0.996311 0.00393911 0)
(0.996139 0.00588455 0)
(0.996055 0.00862418 0)
(1.00044 0.00037672 0)
(0.998931 -0.00177821 0)
(0.999545 0.00397115 0)
(1.00456 0.00114125 0)
(1.00263 -0.00411891 0)
(0.998139 -0.00268095 0)
(0.996322 -0.000525358 0)
(0.996918 0.00475971 0)
(1.00246 0.00436023 0)
(1.0043 0.0012834 0)
(1.00244 0.00201295 0)
(1.0036 -0.00242001 0)
(1.00145 -0.00324209 0)
(0.998178 -0.000325477 0)
(0.997891 -0.00134157 0)
(0.996906 0.000112468 0)
(0.996024 0.003148 0)
(0.996569 0.00416673 0)
(0.996589 0.00567961 0)
(0.99648 0.00821544 0)
(1.0004 0.000350272 0)
(0.999039 -0.00163521 0)
(0.999613 0.0036571 0)
(1.00433 0.00117623 0)
(1.00251 -0.00396707 0)
(0.998272 -0.00241277 0)
(0.996592 -0.000564588 0)
(0.997106 0.00446482 0)
(1.00229 0.00422096 0)
(1.00419 0.00113748 0)
(1.00225 0.0019329 0)
(1.00331 -0.00199076 0)
(1.00159 -0.00310669 0)
(0.998333 -0.000167838 0)
(0.997942 -0.000860841 0)
(0.997284 0.000174062 0)
(0.996401 0.00317753 0)
(0.996817 0.00438242 0)
(0.996992 0.00556967 0)
(0.99693 0.00776843 0)
(1.00037 0.000319888 0)
(0.999134 -0.00148396 0)
(0.999686 0.00333643 0)
(1.00409 0.001212 0)
(1.0024 -0.00380929 0)
(0.998399 -0.00217144 0)
(0.99686 -0.000569641 0)
(0.9973 0.0041408 0)
(1.00212 0.00409652 0)
(1.00408 0.00101241 0)
(1.00208 0.00183632 0)
(1.00301 -0.00155813 0)
(1.00172 -0.00293879 0)
(0.998514 -5.08498e-05 0)
(0.997988 -0.000378992 0)
(0.997638 0.000279398 0)
(0.99681 0.00315104 0)
(0.997068 0.00455421 0)
(0.997343 0.00553618 0)
(0.997378 0.00734877 0)
(1.00034 0.000285143 0)
(0.999219 -0.00132466 0)
(0.999759 0.00301234 0)
(1.00386 0.00124251 0)
(1.00229 -0.00363683 0)
(0.998522 -0.0019653 0)
(0.99712 -0.00053272 0)
(0.997499 0.00380058 0)
(1.00196 0.00397209 0)
(1.00397 0.00091528 0)
(1.00194 0.00172456 0)
(1.00272 -0.00113118 0)
(1.00184 -0.00273047 0)
(0.998723 3.73815e-05 0)
(0.998033 9.04155e-05 0)
(0.997957 0.000431719 0)
(0.99724 0.00308453 0)
(0.997334 0.00466862 0)
(0.997649 0.00554473 0)
(0.997801 0.00700897 0)
(1.00031 0.000247381 0)
(0.999296 -0.00116349 0)
(0.999831 0.00269442 0)
(1.00363 0.00126331 0)
(1.00219 -0.00344715 0)
(0.998643 -0.00179476 0)
(0.99737 -0.000469357 0)
(0.997702 0.003458 0)
(1.00181 0.00383306 0)
(1.00385 0.00084209 0)
(1.00183 0.00160371 0)
(1.00243 -0.000716676 0)
(1.00193 -0.00247957 0)
(0.998959 9.96138e-05 0)
(0.998084 0.000532761 0)
(0.998237 0.000625602 0)
(0.997682 0.00299018 0)
(0.997624 0.00473062 0)
(0.997923 0.00556463 0)
(0.998182 0.00675328 0)
(1.00029 0.000206986 0)
(0.999366 -0.00100121 0)
(0.9999 0.00238482 0)
(1.00341 0.00126563 0)
(1.00208 -0.00323496 0)
(0.998763 -0.00165487 0)
(0.997608 -0.000384597 0)
(0.997905 0.00312584 0)
(1.00167 0.00367672 0)
(1.00372 0.000795058 0)
(1.00174 0.00148603 0)
(1.00216 -0.000317321 0)
(1.00199 -0.00218574 0)
(0.99922 0.000140925 0)
(0.998147 0.000942603 0)
(0.998475 0.000864156 0)
(0.998128 0.00288046 0)
(0.99794 0.00474413 0)
(0.998177 0.0055821 0)
(0.998522 0.00654866 0)
(1.00027 0.000165166 0)
(0.999429 -0.000841186 0)
(0.999966 0.00208733 0)
(1.00319 0.00124356 0)
(1.00197 -0.00299908 0)
(0.998882 -0.00154125 0)
(0.997834 -0.000290207 0)
(0.998105 0.00281505 0)
(1.00153 0.00350643 0)
(1.0036 0.000773337 0)
(1.00168 0.00137684 0)
(1.0019 6.0829e-05 0)
(1.00203 -0.0018523 0)
(0.9995 0.00016504 0)
(0.998233 0.00129982 0)
(0.998669 0.00114317 0)
(0.998566 0.0027673 0)
(0.998288 0.00470067 0)
(0.998418 0.00560254 0)
(0.998822 0.00637183 0)
(1.00025 0.000122389 0)
(0.999485 -0.000686999 0)
(1.00003 0.00181289 0)
(1.00298 0.00118789 0)
(1.00186 -0.00275055 0)
(0.998999 -0.00144165 0)
(0.998049 -0.000195583 0)
(0.998299 0.00254063 0)
(1.00141 0.00332659 0)
(1.00347 0.000778922 0)
(1.00164 0.00128026 0)
(1.00167 0.000399031 0)
(1.00203 -0.00149471 0)
(0.999791 0.000173119 0)
(0.998348 0.00158431 0)
(0.998822 0.00145016 0)
(0.998982 0.0026704 0)
(0.99867 0.00458723 0)
(0.998658 0.00561951 0)
(0.999083 0.00622603 0)
(1.00023 7.86705e-05 0)
(0.999533 -0.000540313 0)
(1.00008 0.0015628 0)
(1.00278 0.00110202 0)
(1.00174 -0.00249553 0)
(0.999113 -0.0013449 0)
(0.998254 -0.00010046 0)
(0.998486 0.00230676 0)
(1.0013 0.00314852 0)
(1.00334 0.000810767 0)
(1.00162 0.00120125 0)
(1.00146 0.000691034 0)
(1.00201 -0.00112634 0)
(1.00009 0.000173058 0)
(0.9985 0.00179059 0)
(0.998942 0.00177379 0)
(0.999361 0.00262139 0)
(0.999085 0.00441153 0)
(0.998911 0.0056048 0)
(0.999305 0.0061238 0)
(1.00021 3.61389e-05 0)
(0.999575 -0.000406509 0)
(1.00013 0.00133983 0)
(1.0026 0.000996712 0)
(1.00163 -0.00223951 0)
(0.999223 -0.0012512 0)
(0.998449 -8.86209e-06 0)
(0.998664 0.00211081 0)
(1.00119 0.00298402 0)
(1.0032 0.00085748 0)
(1.00162 0.0011371 0)
(1.00127 0.000937449 0)
(1.00196 -0.000751576 0)
(1.00037 0.000180919 0)
(0.998695 0.00192423 0)
(0.999041 0.00209372 0)
(0.999689 0.00263795 0)
(0.999518 0.00420168 0)
(0.999195 0.00552794 0)
(0.999496 0.00605745 0)
(1.00019 -4.86805e-06 0)
(0.99961 -0.000287501 0)
(1.00017 0.00114732 0)
(1.00242 0.000868474 0)
(1.00152 -0.00199662 0)
(0.999329 -0.00115783 0)
(0.998635 7.54723e-05 0)
(0.998836 0.001959 0)
(1.0011 0.00283131 0)
(1.00307 0.000912 0)
(1.00163 0.00108121 0)
(1.00112 0.00114294 0)
(1.00189 -0.000377537 0)
(1.00065 0.000209294 0)
(0.998933 0.0019914 0)
(0.999137 0.00238301 0)
(0.999958 0.00271526 0)
(0.999948 0.00399513 0)
(0.999518 0.00538209 0)
(0.999675 0.00599731 0)
(1.00017 -4.29089e-05 0)
(0.999641 -0.000184608 0)
(1.00019 0.000982905 0)
(1.00225 0.000726255 0)
(1.00142 -0.00176899 0)
(0.999429 -0.00106572 0)
(0.998815 0.000147488 0)
(0.998999 0.0018449 0)
(1.00102 0.00269517 0)
(1.00293 0.000971801 0)
(1.00165 0.0010316 0)
(1.00099 0.00131173 0)
(1.00179 -1.2542e-05 0)
(1.0009 0.000268877 0)
(0.99921 0.00200592 0)
(0.999243 0.00262518 0)
(1.00017 0.00283892 0)
(1.00036 0.00382248 0)
(0.999879 0.00518451 0)
(0.999864 0.00591419 0)
(1.00016 -7.69767e-05 0)
(0.999666 -9.9897e-05 0)
(1.00021 0.000850275 0)
(1.0021 0.000575648 0)
(1.00132 -0.00156162 0)
(0.999524 -0.00097114 0)
(0.99899 0.000198835 0)
(0.999156 0.00176353 0)
(1.00095 0.00259108 0)
(1.0028 0.00104153 0)
(1.00169 0.000989005 0)
(1.0009 0.00144065 0)
(1.00169 0.000344506 0)
(1.00112 0.000367233 0)
(0.999519 0.0019812 0)
(0.999372 0.00280571 0)
(1.00034 0.0029849 0)
(1.00073 0.00369395 0)
(1.00027 0.00495753 0)
(1.00008 0.00579126 0)
(1.00014 -0.000105282 0)
(0.999688 -3.48845e-05 0)
(1.00022 0.000744058 0)
(1.00195 0.000422158 0)
(1.00123 -0.00138705 0)
(0.999613 -0.000866578 0)
(0.999161 0.000219594 0)
(0.999311 0.00170226 0)
(1.00088 0.00252729 0)
(1.00265 0.00112292 0)
(1.00173 0.000955186 0)
(1.00085 0.00152659 0)
(1.00157 0.000686653 0)
(1.00131 0.000506598 0)
(0.999847 0.00193448 0)
(0.999533 0.00292034 0)
(1.00047 0.00313441 0)
(1.00105 0.00361142 0)
(1.00067 0.00472235 0)
(1.00033 0.00562274 0)
(1.00012 -0.000131998 0)
(0.999707 1.84213e-05 0)
(1.00022 0.000653969 0)
(1.00181 0.000285421 0)
(1.00115 -0.0012398 0)
(0.999695 -0.000760734 0)
(0.999328 0.000222698 0)
(0.999469 0.00164351 0)
(1.00082 0.00249043 0)
(1.0025 0.00121565 0)
(1.00177 0.00093717 0)
(1.00083 0.00157979 0)
(1.00146 0.00100059 0)
(1.00145 0.000686853 0)
(1.00018 0.00188985 0)
(0.999731 0.00297424 0)
(1.00059 0.0032725 0)
(1.00131 0.00357016 0)
(1.00106 0.00449495 0)
(1.00062 0.0054098 0)
(1.00011 -0.000148277 0)
(0.999725 4.21096e-05 0)
(1.00021 0.000601473 0)
(1.00168 0.000150116 0)
(1.00108 -0.00109627 0)
(0.999769 -0.000636476 0)
(0.99949 0.000242914 0)
(0.999633 0.00157761 0)
(1.00077 0.00244459 0)
(1.00235 0.00131239 0)
(1.0018 0.000933939 0)
(1.00084 0.00159928 0)
(1.00136 0.0012715 0)
(1.00156 0.00089685 0)
(1.00051 0.00186649 0)
(0.999963 0.00297734 0)
(1.00069 0.0033841 0)
(1.00152 0.00356296 0)
(1.00143 0.00429085 0)
(1.00094 0.00516554 0)
(1.00009 -0.000158907 0)
(0.999743 4.88377e-05 0)
(1.00019 0.000564989 0)
(1.00156 4.31615e-05 0)
(1.00102 -0.000960329 0)
(0.999838 -0.000477334 0)
(0.999642 0.00029159 0)
(0.999795 0.00147507 0)
(1.00074 0.00235129 0)
(1.00219 0.00139756 0)
(1.00182 0.000949004 0)
(1.00089 0.001586 0)
(1.00128 0.00149099 0)
(1.00163 0.00111476 0)
(1.00081 0.00186941 0)
(1.00022 0.00294338 0)
(1.00081 0.00345607 0)
(1.00169 0.00357952 0)
(1.00176 0.00412379 0)
(1.00129 0.00491277 0)
(1.00008 -0.000166721 0)
(0.999761 4.40311e-05 0)
(1.00016 0.000541168 0)
(1.00144 -2.05515e-05 0)
(1.00098 -0.000846256 0)
(0.999905 -0.000304706 0)
(0.999776 0.000356936 0)
(0.999948 0.00133425 0)
(1.00072 0.00221701 0)
(1.00204 0.00147794 0)
(1.00184 0.000992796 0)
(1.00095 0.00156388 0)
(1.00123 0.0016617 0)
(1.00167 0.00132619 0)
(1.00109 0.00189712 0)
(1.0005 0.00288939 0)
(1.00094 0.00348547 0)
(1.00182 0.00360375 0)
(1.00205 0.00399432 0)
(1.00163 0.00466745 0)
(1.00006 -0.000163502 0)
(0.999783 1.86091e-05 0)
(1.00014 0.00053229 0)
(1.00133 -5.88813e-05 0)
(1.00096 -0.000751501 0)
(0.999972 -0.000150031 0)
(0.999887 0.000432616 0)
(1.00009 0.00120941 0)
(1.00073 0.00207433 0)
(1.00189 0.00155364 0)
(1.00184 0.00106388 0)
(1.00103 0.00154705 0)
(1.00121 0.00178293 0)
(1.0017 0.0015215 0)
(1.00133 0.00194911 0)
(1.00079 0.00283476 0)
(1.00109 0.00348442 0)
(1.00192 0.00362783 0)
(1.00228 0.00390127 0)
(1.00196 0.00444233 0)
(1.00005 -0.000158281 0)
(0.999806 -1.16561e-05 0)
(1.00011 0.000519685 0)
(1.00122 -5.77712e-05 0)
(1.00094 -0.000678691 0)
(1.00004 -2.22533e-05 0)
(0.999982 0.000524256 0)
(1.00021 0.00112483 0)
(1.00076 0.00192744 0)
(1.00177 0.00160481 0)
(1.00182 0.00115662 0)
(1.00112 0.00154513 0)
(1.00121 0.00186861 0)
(1.00172 0.00168955 0)
(1.00155 0.00201292 0)
(1.00107 0.00278041 0)
(1.00126 0.00345293 0)
(1.00201 0.00363905 0)
(1.00246 0.00383673 0)
(1.00225 0.00424431 0)
(1.00004 -0.000147007 0)
(0.999832 -4.75577e-05 0)
(1.00009 0.000508737 0)
(1.00111 -3.1309e-05 0)
(1.00094 -0.000622283 0)
(1.00012 7.77195e-05 0)
(1.00006 0.000631261 0)
(1.00032 0.00107665 0)
(1.00079 0.00178011 0)
(1.00167 0.0016262 0)
(1.0018 0.00125564 0)
(1.0012 0.00156095 0)
(1.00123 0.00193517 0)
(1.00174 0.00182659 0)
(1.00173 0.00207399 0)
(1.00135 0.00272447 0)
(1.00145 0.00338949 0)
(1.0021 0.00362391 0)
(1.0026 0.00378641 0)
(1.0025 0.00407763 0)
(1.00003 -0.000133017 0)
(0.999861 -8.26166e-05 0)
(1.00008 0.000486255 0)
(1.001 1.71055e-05 0)
(1.00094 -0.000565301 0)
(1.00021 0.000136155 0)
(1.00014 0.000734355 0)
(1.00041 0.0010679 0)
(1.00084 0.00165105 0)
(1.0016 0.00162055 0)
(1.00179 0.00134403 0)
(1.00129 0.00158619 0)
(1.00127 0.00198354 0)
(1.00176 0.00193933 0)
(1.00188 0.00212874 0)
(1.00161 0.0026739 0)
(1.00166 0.00330977 0)
(1.00221 0.00358378 0)
(1.00271 0.00374207 0)
(1.00271 0.00394907 0)
(1.00002 -0.000118394 0)
(0.999891 -0.000112141 0)
(1.00008 0.000452958 0)
(1.0009 8.23949e-05 0)
(1.00094 -0.000496346 0)
(1.00031 0.000160559 0)
(1.00022 0.000818859 0)
(1.00047 0.0010926 0)
(1.00089 0.00155049 0)
(1.00155 0.00159262 0)
(1.00177 0.00141759 0)
(1.00137 0.00161902 0)
(1.00132 0.00202122 0)
(1.00177 0.00203754 0)
(1.00201 0.00218289 0)
(1.00185 0.0026285 0)
(1.00187 0.00322315 0)
(1.00232 0.00351871 0)
(1.00281 0.00368606 0)
(1.00287 0.00384474 0)
(1.00001 -0.000103535 0)
(0.999922 -0.000131304 0)
(1.00009 0.000409095 0)
(1.0008 0.000160188 0)
(1.00094 -0.000411082 0)
(1.00042 0.000163212 0)
(1.0003 0.000874049 0)
(1.00052 0.00113721 0)
(1.00093 0.00148222 0)
(1.00151 0.00155384 0)
(1.00177 0.00146818 0)
(1.00145 0.00165399 0)
(1.00139 0.00205292 0)
(1.0018 0.00211947 0)
(1.00212 0.00223798 0)
(1.00207 0.00258396 0)
(1.00208 0.00312881 0)
(1.00244 0.00343529 0)
(1.0029 0.00360942 0)
(1.00299 0.00374977 0)
(1 -9.04114e-05 0)
(0.999951 -0.000136954 0)
(1.0001 0.000359641 0)
(1.00072 0.000239518 0)
(1.00093 -0.000304452 0)
(1.00054 0.000152212 0)
(1.0004 0.000890994 0)
(1.00057 0.00118672 0)
(1.00096 0.00145281 0)
(1.0015 0.00152245 0)
(1.00178 0.00149345 0)
(1.00153 0.00167753 0)
(1.00146 0.00207308 0)
(1.00182 0.00218145 0)
(1.0022 0.00229089 0)
(1.00226 0.00254732 0)
(1.00229 0.00302757 0)
(1.00258 0.00334362 0)
(1.00299 0.00351842 0)
(1.0031 0.00365408 0)
(0.999999 -7.95361e-05 0)
(0.999978 -0.000126281 0)
(1.00013 0.000306343 0)
(1.00065 0.000308644 0)
(1.00092 -0.000178446 0)
(1.00064 0.000145505 0)
(1.00051 0.000869235 0)
(1.00062 0.00122606 0)
(1.00098 0.00145331 0)
(1.00148 0.00150571 0)
(1.00179 0.00150977 0)
(1.00162 0.00168547 0)
(1.00155 0.00208068 0)
(1.00186 0.00222719 0)
(1.00227 0.00233769 0)
(1.00242 0.00252635 0)
(1.00249 0.0029245 0)
(1.00272 0.0032389 0)
(1.00309 0.00341741 0)
(1.00319 0.00354249 0)
(0.999996 -7.21766e-05 0)
(1 -0.000101001 0)
(1.00017 0.000256555 0)
(1.0006 0.000360007 0)
(1.0009 -4.81435e-05 0)
(1.00074 0.000157857 0)
(1.00063 0.000822669 0)
(1.00068 0.00124548 0)
(1.001 0.00147204 0)
(1.00147 0.00150299 0)
(1.00181 0.00152545 0)
(1.00171 0.0016813 0)
(1.00165 0.00206955 0)
(1.00191 0.00225403 0)
(1.00232 0.0023733 0)
(1.00255 0.00251731 0)
(1.00268 0.00283616 0)
(1.00286 0.00312324 0)
(1.00318 0.00331402 0)
(1.00329 0.00341693 0)
(0.999993 -6.75103e-05 0)
(1.00002 -6.603e-05 0)
(1.0002 0.000215425 0)
(1.00056 0.000389588 0)
(1.00087 8.60241e-05 0)
(1.00082 0.000196656 0)
(1.00076 0.000770745 0)
(1.00075 0.00123457 0)
(1.00102 0.00149696 0)
(1.00146 0.00152123 0)
(1.00182 0.0015419 0)
(1.0018 0.00167607 0)
(1.00176 0.00204058 0)
(1.00198 0.00225578 0)
(1.00238 0.00239263 0)
(1.00265 0.0025055 0)
(1.00283 0.00276536 0)
(1.00301 0.00300635 0)
(1.00328 0.00320667 0)
(1.00338 0.00329045 0)
(0.999992 -6.47197e-05 0)
(1.00003 -2.62982e-05 0)
(1.00024 0.000185497 0)
(1.00054 0.00039938 0)
(1.00085 0.000215945 0)
(1.00088 0.000263404 0)
(1.00088 0.000728524 0)
(1.00084 0.00119505 0)
(1.00105 0.00150941 0)
(1.00144 0.00155642 0)
(1.00183 0.00156534 0)
(1.00189 0.00167194 0)
(1.00188 0.00200422 0)
(1.00205 0.0022353 0)
(1.00243 0.00239509 0)
(1.00274 0.00248706 0)
(1.00297 0.00270108 0)
(1.00314 0.0028977 0)
(1.00337 0.0030908 0)
(1.00346 0.00316935 0)
(0.999991 -6.32504e-05 0)
(1.00004 1.38381e-05 0)
(1.00027 0.000172067 0)
(1.00053 0.000396229 0)
(1.00083 0.000322301 0)
(1.00092 0.000349625 0)
(1.00099 0.000704991 0)
(1.00094 0.00114491 0)
(1.0011 0.001503 0)
(1.00143 0.00158961 0)
(1.00183 0.00160347 0)
(1.00196 0.00167025 0)
(1.00199 0.00196268 0)
(1.00214 0.00219647 0)
(1.00249 0.0023768 0)
(1.00282 0.00246241 0)
(1.00308 0.00263613 0)
(1.00326 0.00279681 0)
(1.00346 0.0029702 0)
(1.00354 0.0030482 0)
(0.999991 -6.12994e-05 0)
(1.00005 4.98473e-05 0)
(1.00029 0.000174327 0)
(1.00054 0.00038798 0)
(1.00082 0.000405798 0)
(1.00094 0.000443655 0)
(1.00108 0.000706477 0)
(1.00105 0.0010941 0)
(1.00116 0.00147915 0)
(1.00143 0.00160989 0)
(1.00182 0.00164842 0)
(1.00201 0.00168237 0)
(1.0021 0.00192227 0)
(1.00224 0.00214304 0)
(1.00255 0.00233693 0)
(1.00288 0.00242551 0)
(1.00317 0.00257027 0)
(1.00337 0.00269763 0)
(1.00355 0.00285119 0)
(1.00361 0.00292112 0)
(0.999992 -5.82867e-05 0)
(1.00005 7.92259e-05 0)
(1.00031 0.000189508 0)
(1.00055 0.000382015 0)
(1.00082 0.000466591 0)
(1.00096 0.000533795 0)
(1.00115 0.000735386 0)
(1.00115 0.00105278 0)
(1.00123 0.00144004 0)
(1.00144 0.00161687 0)
(1.00181 0.0016835 0)
(1.00205 0.00170566 0)
(1.00219 0.00189413 0)
(1.00234 0.00208334 0)
(1.00262 0.00227975 0)
(1.00294 0.002372 0)
(1.00324 0.00250101 0)
(1.00346 0.00259922 0)
(1.00362 0.00273501 0)
(1.00367 0.00279105 0)
(0.999992 -5.34435e-05 0)
(1.00005 0.000101931 0)
(1.00032 0.000214106 0)
(1.00056 0.000382003 0)