/*--------------------------------*- C++ -*----------------------------------*\
| =========                 |                                                 |
| \\      /  F ield         | OpenFOAM: The Open Source CFD Toolbox           |
|  \\    /   O peration     | Version:  2506                                  |
|   \\  /    A nd           | Website:  www.openfoam.com                      |
|    \\/     M anipulation  |                                                 |
\*---------------------------------------------------------------------------*/
FoamFile
{
    version     2.0;
    format      ascii;
    arch        "LSB;label=32;scalar=64";
    class       volScalarField;
    location    "10";
    object      p;
}
// * * * * * * * * * * * * * * * * * * * * * * * * * * * * * * * * * * * * * //

dimensions      [0 2 -2 0 0 0 0];

internalField   nonuniform List<scalar> 
9600
(
-7.88326e-11
-0.00578426
-0.00334405
-0.00125004
-0.00195007
0.000165963
-0.00629874
-0.00890042
-0.00741277
-0.0059636
-0.00709805
-0.00808391
-0.00827902
-0.00885637
-0.00898402
-0.0105296
-0.0108871
-0.0121201
-0.0128083
-0.0124764
3.24147e-06
-0.00578322
-0.00335562
-0.00125877
-0.00193089
0.000119846
-0.00627134
-0.00888318
-0.00742427
-0.00593503
-0.00711006
-0.00809775
-0.0082747
-0.00887158
-0.00897544
-0.0105857
-0.0108723
-0.0121872
-0.0127853
-0.012652
8.10049e-06
-0.00578319
-0.0033693
-0.00126782
-0.00190885
5.56406e-05
-0.00622209
-0.008853
-0.00743404
-0.00589918
-0.00713577
-0.00811562
-0.00826916
-0.00889997
-0.00897102
-0.0106585
-0.0108558
-0.0122666
-0.0127606
-0.0128902
9.66592e-06
-0.00578339
-0.00338352
-0.00127791
-0.00190138
-2.90806e-05
-0.00616977
-0.00881127
-0.00744185
-0.00587902
-0.00716811
-0.00813545
-0.00826783
-0.00893906
-0.00897494
-0.0107344
-0.0108524
-0.0123243
-0.0127599
-0.0130999
6.8702e-06
-0.00578338
-0.00339916
-0.00129035
-0.00190667
-0.000134075
-0.00610842
-0.00875963
-0.00745314
-0.00587526
-0.00720232
-0.0081609
-0.00827133
-0.00898484
-0.00897818
-0.0108135
-0.010848
-0.0123708
-0.0127856
-0.0132553
2.02529e-07
-0.00578308
-0.00341637
-0.00130549
-0.0019223
-0.000256227
-0.00603593
-0.00870379
-0.00747185
-0.00588259
-0.00723777
-0.00819184
-0.00827843
-0.00903032
-0.00897934
-0.0108932
-0.0108386
-0.0124194
-0.012826
-0.0133752
-9.73697e-06
-0.00578241
-0.003435
-0.00132405
-0.00194831
-0.000390716
-0.00595516
-0.00864973
-0.00749945
-0.00589675
-0.00727449
-0.0082255
-0.00828747
-0.00907177
-0.00898208
-0.0109703
-0.010832
-0.0124672
-0.0128804
-0.0134766
-2.23529e-05
-0.00578116
-0.00345427
-0.00134695
-0.0019843
-0.000533236
-0.0058702
-0.0086001
-0.00753435
-0.005914
-0.0073122
-0.00826087
-0.00829656
-0.00911004
-0.00898879
-0.0110447
-0.0108327
-0.0125089
-0.0129553
-0.0135636
-3.69615e-05
-0.0057791
-0.00347414
-0.00137494
-0.00202889
-0.000681223
-0.00578407
-0.00855424
-0.00757388
-0.00593199
-0.00735129
-0.00829844
-0.00830451
-0.00914826
-0.00900077
-0.0111169
-0.010843
-0.0125416
-0.0130524
-0.0136365
-5.29138e-05
-0.00577613
-0.00349458
-0.00140853
-0.00208029
-0.000833032
-0.00569803
-0.00851028
-0.00761584
-0.00594991
-0.00739225
-0.00833885
-0.00831132
-0.00918934
-0.00901822
-0.0111862
-0.0108654
-0.012562
-0.01317
-0.013699
-6.97489e-05
-0.00577236
-0.00351574
-0.00144792
-0.00213672
-0.000987455
-0.00561246
-0.00846661
-0.00765934
-0.00596759
-0.0074352
-0.00838272
-0.00831747
-0.00923447
-0.00904075
-0.0112509
-0.0109022
-0.0125679
-0.0133057
-0.0137573
-8.72247e-05
-0.00576796
-0.00353787
-0.00149297
-0.00219661
-0.00114372
-0.00552758
-0.00842238
-0.0077042
-0.00598488
-0.00748008
-0.00843058
-0.00832324
-0.00928335
-0.00906859
-0.011309
-0.0109552
-0.0125599
-0.0134554
-0.0138192
-0.000105264
-0.00576322
-0.00356124
-0.0015432
-0.00225872
-0.00130155
-0.00544375
-0.00837716
-0.00775062
-0.00600168
-0.00752679
-0.00848276
-0.00832897
-0.00933493
-0.00910267
-0.0113591
-0.0110257
-0.0125404
-0.0136139
-0.0138914
-0.000123898
-0.00575839
-0.00358609
-0.0015979
-0.00232222
-0.00146104
-0.00536146
-0.0083307
-0.00779899
-0.00601787
-0.00757513
-0.00853954
-0.00833527
-0.00938779
-0.00914432
-0.0114004
-0.011114
-0.0125137
-0.0137747
-0.0139789
-0.00014323
-0.00575367
-0.00361267
-0.0016563
-0.00238658
-0.00162237
-0.00528131
-0.00828291
-0.00784972
-0.00603322
-0.00762484
-0.00860113
-0.0083427
-0.00944043
-0.00919508
-0.011433
-0.011219
-0.0124849
-0.0139315
-0.0140846
-0.000163423
-0.0057492
-0.00364121
-0.0017178
-0.00245158
-0.00178562
-0.00520398
-0.0082336
-0.00790316
-0.00604756
-0.00767557
-0.00866775
-0.0083517
-0.00949152
-0.00925631
-0.0114579
-0.0113385
-0.0124589
-0.0140791
-0.0142098
-0.000184677
-0.00574508
-0.00367192
-0.00178195
-0.00251722
-0.00195067
-0.00513022
-0.00818253
-0.00795956
-0.00606094
-0.00772688
-0.00873955
-0.00836287
-0.00954002
-0.00932833
-0.0114772
-0.0114697
-0.0124399
-0.0142132
-0.0143539
-0.000207201
-0.00574131
-0.00370507
-0.00184842
-0.00258368
-0.00211726
-0.0050608
-0.00812946
-0.00801919
-0.00607339
-0.00777819
-0.00881675
-0.00837671
-0.00958552
-0.00941045
-0.0114924
-0.0116106
-0.0124313
-0.0143302
-0.0145157
-0.000231196
-0.00573786
-0.0037409
-0.00191689
-0.00265113
-0.00228504
-0.00499652
-0.00807419
-0.00808228
-0.00608494
-0.00782888
-0.00889981
-0.00839332
-0.00962801
-0.00950164
-0.0115049
-0.0117592
-0.0124351
-0.0144272
-0.0146936
-0.000256856
-0.00573459
-0.00377972
-0.00198707
-0.0027198
-0.00245359
-0.0049382
-0.00801662
-0.00814891
-0.00609588
-0.00787806
-0.0089894
-0.00841255
-0.0096675
-0.00960147
-0.0115158
-0.0119138
-0.0124536
-0.0145016
-0.014885
-0.000284389
-0.00573128
-0.00382186
-0.00205869
-0.00278989
-0.00262243
-0.0048867
-0.00795658
-0.00821913
-0.00610697
-0.00792462
-0.00908627
-0.00843418
-0.00970416
-0.00971034
-0.0115253
-0.0120726
-0.0124896
-0.0145507
-0.0150853
-0.000314031
-0.00572768
-0.00386767
-0.00213157
-0.00286166
-0.00279099
-0.00484284
-0.00789399
-0.00829298
-0.00611914
-0.00796714
-0.00919121
-0.00845836
-0.00973798
-0.00982888
-0.0115328
-0.0122335
-0.0125472
-0.0145725
-0.0152872
-0.000346047
-0.00572349
-0.00391754
-0.00220557
-0.00293541
-0.00295863
-0.00480737
-0.00782895
-0.00837027
-0.00613361
-0.00800377
-0.00930504
-0.00848577
-0.00976813
-0.00995804
-0.0115376
-0.0123933
-0.0126309
-0.0145667
-0.0154802
-0.000380752
-0.00571836
-0.00397189
-0.00228057
-0.00301147
-0.00312474
-0.00478097
-0.00776157
-0.0084505
-0.00615216
-0.00803256
-0.00942834
-0.00851765
-0.00979288
-0.0100991
-0.0115407
-0.012547
-0.0127447
-0.0145375
-0.0156509
-0.000418512
-0.00571192
-0.00403117
-0.00235641
-0.00309011
-0.00328845
-0.00476428
-0.00769228
-0.00853272
-0.00617682
-0.00805185
-0.00956093
-0.00855594
-0.00980994
-0.010253
-0.0115451
-0.0126875
-0.0128906
-0.0144948
-0.0157845
-0.000459731
-0.00570376
-0.00409584
-0.00243289
-0.00317156
-0.00343173
-0.00475776
-0.00762166
-0.00861574
-0.00620977
-0.00806027
-0.00970202
-0.00860322
-0.0098167
-0.0104201
-0.011556
-0.0128068
-0.0130668
-0.0144538
-0.0158672
-0.000504848
-0.00569347
-0.00416636
-0.00250996
-0.00325619
-0.00359053
-0.00476162
-0.00755037
-0.00869831
-0.0062533
-0.00805701
-0.00985012
-0.00866251
-0.0098107
-0.010599
-0.0115803
-0.0128977
-0.0132667
-0.0144334
-0.0158924
-0.000554368
-0.00568058
-0.00424317
-0.0025875
-0.00334417
-0.00374683
-0.00477577
-0.0074795
-0.00877873
-0.00630944
-0.00804193
-0.0100025
-0.00873767
-0.0097905
-0.0107861
-0.0116261
-0.0129561
-0.0134783
-0.0144522
-0.0158664
-0.000608842
-0.00566463
-0.00432673
-0.00266553
-0.00343537
-0.00390069
-0.00479991
-0.00741024
-0.00885574
-0.00637987
-0.00801573
-0.0101558
-0.00883306
-0.00975551
-0.0109755
-0.0117021
-0.012983
-0.0136853
-0.0145212
-0.0158057
-0.000668838
-0.00564505
-0.00441747
-0.00274416
-0.0035295
-0.00405258
-0.00483308
-0.00734387
-0.0089275
-0.00646587
-0.00798014
-0.0103063
-0.00895209
-0.00970708
-0.0111599
-0.0118149
-0.0129843
-0.0138693
-0.014642
-0.0157383
-0.000734994
-0.00562134
-0.00451571
-0.0028236
-0.00362611
-0.00420328
-0.0048739
-0.00728214
-0.00899366
-0.00656778
-0.00793741
-0.0104496
-0.009097
-0.00964893
-0.0113309
-0.0119678
-0.0129701
-0.0140124
-0.0148048
-0.0156992
-0.000807968
-0.00559306
-0.00462158
-0.00290442
-0.00372442
-0.00435395
-0.00492073
-0.00722617
-0.00905445
-0.00668527
-0.00789011
-0.0105818
-0.00926935
-0.0095863
-0.0114791
-0.0121605
-0.0129554
-0.0141021
-0.0149902
-0.0157182
-0.000888464
-0.00555964
-0.0047351
-0.00298735
-0.00382321
-0.00450602
-0.00497215
-0.00717647
-0.00911069
-0.00681756
-0.00784117
-0.0106997
-0.00946979
-0.00952578
-0.0115953
-0.0123882
-0.012958
-0.0141354
-0.0151721
-0.015806
-0.000977225
-0.0055207
-0.00485626
-0.00307321
-0.00392072
-0.00466131
-0.0050278
-0.00713296
-0.00916306
-0.00696365
-0.00779359
-0.0108006
-0.00969743
-0.00947478
-0.0116723
-0.0126433
-0.0129942
-0.0141182
-0.0153225
-0.0159519
-0.00107492
-0.00547603
-0.00498434
-0.0031633
-0.00401499
-0.00482131
-0.00508797
-0.00709461
-0.00921277
-0.00712308
-0.00774987
-0.0108812
-0.00995058
-0.00944242
-0.0117054
-0.0129142
-0.0130766
-0.0140633
-0.0154196
-0.0161301
-0.00118226
-0.00542546
-0.0051183
-0.00325931
-0.00410392
-0.00498654
-0.00515364
-0.00706036
-0.00926091
-0.00729518
-0.00771224
-0.0109392
-0.0102265
-0.00943781
-0.0116919
-0.0131876
-0.013214
-0.0139879
-0.0154524
-0.0163104
-0.00129986
-0.0053689
-0.00525659
-0.00336341
-0.00418529
-0.00515708
-0.00522715
-0.00702821
-0.00930801
-0.00748015
-0.00768344
-0.0109727
-0.0105205
-0.00946955
-0.0116336
-0.0134481
-0.013411
-0.0139113
-0.0154192
-0.0164646
-0.00142827
-0.00530646
-0.0053978
-0.00347816
-0.00425746
-0.00533198
-0.0053115
-0.00699585
-0.0093536
-0.00767919
-0.00766673
-0.010979
-0.0108258
-0.00954795
-0.0115363
-0.0136756
-0.0136675
-0.0138571
-0.0153226
-0.0165714
-0.00156799
-0.00523878
-0.00553939
-0.00360615
-0.00431964
-0.00550883
-0.00541054
-0.00696228
-0.00939539
-0.00789339
-0.00766657
-0.010956
-0.0111341
-0.00968281
-0.0114122
-0.0138473
-0.0139741
-0.0138534
-0.0151719
-0.0166132
-0.00171925
-0.00516693
-0.0056784
-0.00374991
-0.00437182
-0.00568447
-0.00552827
-0.0069274
-0.00943022
-0.00812361
-0.00768743
-0.0109037
-0.0114361
-0.00987922
-0.0112791
-0.0139439
-0.0143094
-0.0139274
-0.0149882
-0.0165716
-0.00188226
-0.00509225
-0.00581172
-0.00391161
-0.00441526
-0.00585444
-0.00566823
-0.00689348
-0.00945328
-0.00836848
-0.00773477
-0.0108237
-0.0117212
-0.0101377
-0.0111584
-0.0139552
-0.0146432
-0.0140931
-0.0148088
-0.0164377
-0.00205707
-0.00501674
-0.00593569
-0.00409262
-0.00445245
-0.00601332
-0.00583339
-0.00686478
-0.00945787
-0.00862482
-0.00781626
-0.0107193
-0.0119783
-0.0104541
-0.0110717
-0.0138833
-0.0149418
-0.0143435
-0.0146797
-0.0162266
-0.0022434
-0.00494279
-0.00604673
-0.00429347
-0.00448725
-0.00615564
-0.00602477
-0.00684707
-0.0094386
-0.00888779
-0.00794004
-0.0105977
-0.0121946
-0.0108175
-0.0110408
-0.0137431
-0.0151733
-0.0146527
-0.0146373
-0.0159744
-0.00244068
-0.00487313
-0.00614138
-0.00451372
-0.00452507
-0.0062756
-0.00624044
-0.00684928
-0.0093929
-0.00914941
-0.00811285
-0.0104712
-0.0123567
-0.0112117
-0.0110849
-0.0135573
-0.015313
-0.0149877
-0.014696
-0.01573
-0.00264813
-0.00481078
-0.00621653
-0.004752
-0.00457246
-0.00636799
-0.00647631
-0.00688288
-0.00932277
-0.00939748
-0.00833654
-0.0103559
-0.0124555
-0.0116152
-0.011213
-0.0133555
-0.015351
-0.0153133
-0.0148486
-0.0155382
-0.0028646
-0.00475898
-0.00626982
-0.00500543
-0.00463719
-0.00643051
-0.00672495
-0.00695822
-0.00923508
-0.00961906
-0.00860439
-0.0102685
-0.0124903
-0.0120027
-0.0114211
-0.0131732
-0.015294
-0.0155935
-0.0150739
-0.0154261
-0.00308849
-0.00472106
-0.00629538
-0.00526947
-0.00472775
-0.00646436
-0.00697336
-0.0070804
-0.00914165
-0.00980432
-0.0089041
-0.0102239
-0.0124696
-0.0123506
-0.0116934
-0.0130429
-0.0151649
-0.0157983
-0.015342
-0.0154043
-0.00331796
-0.00469989
-0.00630286
-0.00553785
-0.00485179
-0.00647425
-0.00720605
-0.00724784
-0.00905901
-0.00994883
-0.00921981
-0.0102318
-0.0124098
-0.0126415
-0.0120075
-0.0129848
-0.014995
-0.015912
-0.0156169
-0.0154698
-0.00355061
-0.00469841
-0.00629059
-0.00580188
-0.0050143
-0.00647063
-0.00741135
-0.00745324
-0.00900323
-0.0100545
-0.00953485
-0.0102936
-0.01233
-0.0128667
-0.0123396
-0.0130046
-0.0148195
-0.0159392
-0.0158614
-0.0156059
-0.00378376
-0.00471883
-0.00626324
-0.00605243
-0.00521626
-0.00646858
-0.0075823
-0.00768267
-0.00898492
-0.0101285
-0.0098352
-0.0104045
-0.0122499
-0.013026
-0.0126655
-0.0130956
-0.0146692
-0.0159004
-0.0160476
-0.0157823
-0.00401503
-0.00476253
-0.00622766
-0.00628169
-0.005455
-0.00648434
-0.00771858
-0.00792001
-0.00900665
-0.0101802
-0.0101111
-0.0105557
-0.0121868
-0.0131269
-0.0129641
-0.0132421
-0.0145644
-0.0158222
-0.0161663
-0.015964
-0.00424212
-0.00483024
-0.00619164
-0.00648393
-0.00572325
-0.00653023
-0.00782278
-0.00815271
-0.00906717
-0.0102207
-0.0103574
-0.0107357
-0.0121516
-0.0131834
-0.0132207
-0.0134235
-0.0145127
-0.0157313
-0.0162269
-0.0161226
-0.00446327
-0.00492103
-0.00616402
-0.00665768
-0.00601032
-0.00661372
-0.00790364
-0.00837115
-0.00915996
-0.0102579
-0.0105714
-0.0109325
-0.0121509
-0.0132121
-0.0134306
-0.013619
-0.0145104
-0.0156474
-0.0162456
-0.0162453
-0.00467758
-0.00503286
-0.00615035
-0.00680226
-0.00630465
-0.00673982
-0.00797874
-0.00857285
-0.00927598
-0.0102974
-0.0107519
-0.0111341
-0.0121851
-0.0132274
-0.0135946
-0.0138102
-0.0145465
-0.0155798
-0.0162369
-0.0163322
-0.00488488
-0.00516355
-0.00615521
-0.00691983
-0.00659272
-0.00690624
-0.00806324
-0.00875724
-0.00940834
-0.0103443
-0.0109023
-0.0113311
-0.0122525
-0.0132435
-0.0137196
-0.0139847
-0.0146102
-0.0155327
-0.0162112
-0.0163875
-0.00508588
-0.00531093
-0.00618267
-0.00701585
-0.0068658
-0.00710635
-0.00816288
-0.00892662
-0.00955004
-0.0103994
-0.0110258
-0.0115152
-0.0123463
-0.0132727
-0.0138167
-0.0141353
-0.0146897
-0.0155078
-0.016177
-0.0164142
-0.00527958
-0.00547336
-0.00623411
-0.00709807
-0.00712387
-0.00733162
-0.00828179
-0.00908558
-0.00969704
-0.0104634
-0.0111252
-0.0116781
-0.0124547
-0.0133182
-0.0138982
-0.0142621
-0.0147715
-0.0155021
-0.0161431
-0.0164176
-0.00546479
-0.00562857
-0.00630765
-0.00719801
-0.00737673
-0.00757025
-0.00841225
-0.00923419
-0.00984739
-0.0105411
-0.0112102
-0.0118181
-0.0125694
-0.0133795
-0.0139755
-0.0143737
-0.0148499
-0.0155082
-0.016115
-0.0164063
-0.00564789
-0.00579818
-0.00640424
-0.00730085
-0.00761312
-0.00781176
-0.00855253
-0.00937452
-0.0100001
-0.0106347
-0.0112865
-0.011931
-0.0126779
-0.01345
-0.0140514
-0.0144774
-0.0149273
-0.0155194
-0.016092
-0.0163885
-0.00582819
-0.00597209
-0.00652497
-0.00740658
-0.00783018
-0.00805153
-0.00870217
-0.00950741
-0.0101551
-0.0107494
-0.0113657
-0.0120228
-0.0127737
-0.0135265
-0.0141269
-0.0145743
-0.0150093
-0.0155372
-0.0160706
-0.0163692
-0.00600938
-0.00615376
-0.00665941
-0.00751328
-0.00802999
-0.00829001
-0.00886412
-0.00963883
-0.0103115
-0.0108835
-0.0114561
-0.0121019
-0.0128503
-0.0135987
-0.0142019
-0.0146615
-0.0150924
-0.0155666
-0.0160498
-0.0163466
-0.00619401
-0.00634097
-0.00680642
-0.00762467
-0.00821671
-0.00852647
-0.00903902
-0.00976719
-0.0104573
-0.0110251
-0.0115594
-0.0121755
-0.0129084
-0.0136552
-0.0142735
-0.0147428
-0.0151717
-0.0156103
-0.0160361
-0.0163185
-0.00638078
-0.00653685
-0.00696563
-0.00774181
-0.00839168
-0.00875606
-0.00922248
-0.00989521
-0.0105897
-0.011167
-0.0116774
-0.0122552
-0.0129574
-0.0136928
-0.014332
-0.0148208
-0.0152461
-0.0156634
-0.0160386
-0.0162894
-0.00656673
-0.00672399
-0.00713923
-0.00787693
-0.00855992
-0.00897796
-0.00941324
-0.010027
-0.0107105
-0.0113007
-0.0118033
-0.0123449
-0.0130049
-0.0137169
-0.0143664
-0.0148847
-0.015313
-0.0157163
-0.0160578
-0.0162685
-0.00675568
-0.00691856
-0.00732246
-0.00802203
-0.00872161
-0.0091885
-0.0096078
-0.0101639
-0.0108219
-0.01142
-0.0119279
-0.0124443
-0.0130587
-0.0137385
-0.0143835
-0.0149245
-0.0153663
-0.0157597
-0.0160819
-0.0162575
-0.00694885
-0.00711499
-0.00751256
-0.00817744
-0.00887831
-0.00938524
-0.00980223
-0.0103087
-0.0109292
-0.0115249
-0.0120418
-0.0125427
-0.0131164
-0.0137618
-0.0143956
-0.0149475
-0.0154043
-0.0157927
-0.0161017
-0.0162541
-0.0071468
-0.00731635
-0.00770592
-0.00833986
-0.0090324
-0.00957041
-0.00999408
-0.0104614
-0.0110393
-0.0116219
-0.0121436
-0.0126348
-0.013172
-0.0137768
-0.0143969
-0.014958
-0.015428
-0.0158185
-0.0161191
-0.0162588
-0.00734785
-0.00751504
-0.00790192
-0.00851235
-0.00918979
-0.00974807
-0.0101813
-0.0106182
-0.0111505
-0.0117094
-0.0122322
-0.0127186
-0.0132267
-0.013785
-0.0143764
-0.0149438
-0.0154287
-0.0158286
-0.0161294
-0.0162657
-0.00755344
-0.00771773
-0.00810026
-0.00869221
-0.00935213
-0.00991719
-0.010357
-0.0107733
-0.0112621
-0.011788
-0.0123052
-0.0127877
-0.0132759
-0.0137973
-0.0143466
-0.014903
-0.0153995
-0.0158104
-0.0161193
-0.0162608
-0.00776402
-0.00792802
-0.00829949
-0.00887538
-0.00951772
-0.0100815
-0.0105239
-0.0109247
-0.0113763
-0.0118655
-0.0123664
-0.0128372
-0.0133049
-0.0138007
-0.0143108
-0.0148378
-0.0153357
-0.0157543
-0.0160732
-0.0162275
-0.0079755
-0.00813334
-0.00850127
-0.00906504
-0.00968873
-0.0102445
-0.0106875
-0.0110729
-0.0114885
-0.0119396
-0.0124154
-0.0128692
-0.0133117
-0.0137799
-0.0142609
-0.0147512
-0.0152364
-0.0156575
-0.0159799
-0.016145
-0.00819108
-0.008346
-0.00870481
-0.00925449
-0.00986035
-0.0104039
-0.0108457
-0.0112205
-0.0116013
-0.0120112
-0.0124528
-0.0128788
-0.0132924
-0.0137268
-0.0141812
-0.01464
-0.0151035
-0.0155241
-0.0158464
-0.0160133
-0.00841177
-0.00856476
-0.00891063
-0.00944427
-0.0100329
-0.0105601
-0.0109971
-0.011366
-0.0117207
-0.0120879
-0.0124813
-0.0128591
-0.0132292
-0.0136196
-0.0140402
-0.0144724
-0.014916
-0.0153388
-0.0156746
-0.0158677
-0.00863287
-0.00878354
-0.00912284
-0.00963972
-0.0102064
-0.0107121
-0.0111421
-0.0115098
-0.0118616
-0.0121972
-0.0125186
-0.0128143
-0.013106
-0.0134138
-0.0137529
-0.0141165
-0.0145057
-0.0149208
-0.0153318
-0.0156644
-0.00885366
-0.00900321
-0.00933901
-0.00983933
-0.0103798
-0.0108596
-0.0112683
-0.0116494
-0.0120528
-0.0124358
-0.0127157
-0.0129006
-0.0130862
-0.0133032
-0.0135362
-0.0137351
-0.0138609
-0.0138973
-0.0138559
-0.0138159
-0.00908924
-0.0092192
-0.00953646
-0.0100134
-0.010546
-0.0110141
-0.0113591
-0.0116427
-0.0119476
-0.0122671
-0.01258
-0.0128492
-0.013079
-0.0132726
-0.0134293
-0.0135304
-0.0135815
-0.013638
-0.0137421
-0.0139334
-0.0093708
-0.00952559
-0.00974818
-0.0101105
-0.0105476
-0.010966
-0.0113355
-0.0116545
-0.0119804
-0.0123244
-0.0126595
-0.0129629
-0.0132034
-0.0133727
-0.0135002
-0.0135736
-0.0135853
-0.0135318
-0.0134591
-0.0134549
-0.00950918
-0.00958627
-0.00981891
-0.010195
-0.0106139
-0.0110129
-0.0113868
-0.0117136
-0.0120324
-0.0123597
-0.0126518
-0.0128838
-0.0130801
-0.0132459
-0.0134413
-0.0137074
-0.0140752
-0.0145434
-0.015063
-0.0155494
-0.00974789
-0.00985849
-0.0100128
-0.0102893
-0.0106437
-0.0110217
-0.0113959
-0.0117389
-0.012076
-0.0124092
-0.0127245
-0.0129802
-0.0131802
-0.0133236
-0.0134027
-0.0134243
-0.0133843
-0.0133128
-0.0132703
-0.0133436
-0.0099023
-0.00999107
-0.0101125
-0.0103464
-0.0106641
-0.0110276
-0.0114048
-0.0117607
-0.0121222
-0.0124725
-0.0127932
-0.0130494
-0.0132284
-0.0133392
-0.0133975
-0.0134363
-0.0134901
-0.0135834
-0.0137501
-0.0140341
-0.0117479
-0.0140433
-0.0197488
-0.0240806
-0.0249519
-0.0236705
-0.0219008
-0.0205906
-0.0200786
-0.0201651
-0.0204546
-0.0206475
-0.0205625
-0.0202285
-0.0199279
-0.0198401
-0.0198183
-0.0197332
-0.0196269
-0.0194947
-0.0193167
-0.0191721
-0.0191083
-0.0190874
-0.0190437
-0.0189788
-0.0189634
-0.0190023
-0.0190022
-0.0189553
-0.0189508
-0.019024
-0.0191182
-0.0191964
-0.0193214
-0.0195616
-0.0198404
-0.0200021
-0.0200154
-0.0199823
-0.0199844
-0.0200198
-0.0200518
-0.0200547
-0.0200831
-0.0201511
-0.0202436
-0.0203969
-0.0206079
-0.0207671
-0.0208237
-0.0208289
-0.0208634
-0.0209262
-0.021014
-0.0211249
-0.0212364
-0.0213236
-0.0213951
-0.0214711
-0.0215664
-0.0216882
-0.0217815
-0.0218637
-0.021972
-0.0220589
-0.0221168
-0.0221835
-0.0222795
-0.0223614
-0.0224526
-0.0225327
-0.0226006
-0.0226733
-0.0227575
-0.0228381
-0.022905
-0.0229865
-0.0230932
-0.0232384
-0.0233459
-0.0234464
-0.0235171
-0.0236078
-0.0236963
-0.0238293
-0.0239518
-0.0240707
-0.0241768
-0.0242755
-0.0244233
-0.0244953
-0.0246273
-0.02475
-0.0248565
-0.0249641
-0.0250169
-0.0250168
-0.0248337
-0.0246983
-0.012131
-0.0141206
-0.0196424
-0.0239592
-0.0248795
-0.0236319
-0.0218739
-0.0205694
-0.020062
-0.0201522
-0.0204452
-0.0206409
-0.0205579
-0.0202248
-0.0199242
-0.0198367
-0.0198153
-0.0197305
-0.0196245
-0.0194925
-0.0193145
-0.0191699
-0.0191062
-0.0190855
-0.0190419
-0.018977
-0.0189615
-0.0190006
-0.0190007
-0.0189538
-0.0189493
-0.0190225
-0.0191168
-0.0191951
-0.0193201
-0.0195604
-0.0198394
-0.0200013
-0.0200145
-0.0199815
-0.0199835
-0.020019
-0.0200512
-0.0200541
-0.0200824
-0.0201505
-0.020243
-0.0203963
-0.0206074
-0.0207667
-0.0208233
-0.0208285
-0.020863
-0.0209259
-0.0210136
-0.0211246
-0.0212361
-0.0213233
-0.0213948
-0.0214708
-0.0215662
-0.0216879
-0.0217813
-0.0218635
-0.0219717
-0.0220587
-0.0221166
-0.0221833
-0.0222793
-0.0223612
-0.0224524
-0.0225325
-0.0226004
-0.0226732
-0.0227574
-0.0228379
-0.0229049
-0.0229864
-0.023093
-0.0232383
-0.0233457
-0.0234463
-0.0235169
-0.0236077
-0.0236962
-0.0238292
-0.0239517
-0.0240706
-0.0241767
-0.0242754
-0.0244232
-0.0244952
-0.0246272
-0.0247499
-0.0248564
-0.024964
-0.0250168
-0.0250167
-0.0248335
-0.024698
-0.0125562
-0.0141603
-0.0193988
-0.0237134
-0.0247539
-0.0235837
-0.0218512
-0.0205524
-0.020047
-0.0201383
-0.020432
-0.0206295
-0.0205494
-0.020219
-0.0199202
-0.0198336
-0.0198125
-0.0197278
-0.0196221
-0.0194904
-0.0193125
-0.0191679
-0.0191043
-0.0190838
-0.0190404
-0.0189754
-0.01896
-0.0189992
-0.0189993
-0.0189524
-0.0189479
-0.0190212
-0.0191157
-0.0191939
-0.0193189
-0.0195593
-0.0198386
-0.0200006
-0.0200138
-0.0199807
-0.0199828
-0.0200183
-0.0200505
-0.0200535
-0.0200819
-0.02015
-0.0202425
-0.0203958
-0.020607
-0.0207664
-0.020823
-0.0208282
-0.0208627
-0.0209255
-0.0210133
-0.0211243
-0.0212358
-0.0213231
-0.0213945
-0.0214705
-0.0215659
-0.0216877
-0.0217811
-0.0218632
-0.0219715
-0.0220585
-0.0221164
-0.0221831
-0.0222791
-0.022361
-0.0224523
-0.0225323
-0.0226002
-0.022673
-0.0227572
-0.0228378
-0.0229047
-0.0229862
-0.0230929
-0.0232382
-0.0233456
-0.0234462
-0.0235168
-0.0236076
-0.0236961
-0.0238291
-0.0239516
-0.0240705
-0.0241766
-0.0242753
-0.0244231
-0.0244951
-0.0246271
-0.0247499
-0.0248564
-0.024964
-0.0250167
-0.0250166
-0.0248334
-0.0246977
-0.0129305
-0.0141732
-0.0190951
-0.0234058
-0.0245896
-0.0235226
-0.0218245
-0.0205329
-0.0200297
-0.0201216
-0.0204137
-0.0206099
-0.0205322
-0.0202072
-0.0199133
-0.0198291
-0.0198084
-0.0197239
-0.0196189
-0.019488
-0.0193104
-0.0191657
-0.0191022
-0.019082
-0.0190389
-0.0189741
-0.0189585
-0.0189977
-0.0189979
-0.0189511
-0.0189466
-0.0190199
-0.0191143
-0.0191926
-0.0193176
-0.0195582
-0.0198378
-0.0199999
-0.020013
-0.0199798
-0.0199819
-0.0200175
-0.0200499
-0.0200528
-0.0200812
-0.0201493
-0.0202418
-0.0203952
-0.0206066
-0.0207661
-0.0208227
-0.0208278
-0.0208623
-0.0209252
-0.0210129
-0.021124
-0.0212356
-0.0213228
-0.0213943
-0.0214703
-0.0215657
-0.0216875
-0.0217809
-0.021863
-0.0219714
-0.0220583
-0.0221162
-0.0221829
-0.0222789
-0.0223609
-0.0224521
-0.0225322
-0.0226001
-0.0226728
-0.022757
-0.0228376
-0.0229046
-0.0229861
-0.0230927
-0.023238
-0.0233455
-0.023446
-0.0235167
-0.0236075
-0.0236959
-0.023829
-0.0239515
-0.0240704
-0.0241765
-0.0242752
-0.024423
-0.0244951
-0.024627
-0.0247498
-0.0248563
-0.0249639
-0.0250167
-0.0250166
-0.0248334
-0.0246972
-0.0132877
-0.0142151
-0.0187896
-0.0230792
-0.0244099
-0.023456
-0.0217966
-0.0205116
-0.0200099
-0.0201021
-0.0203901
-0.0205812
-0.0205047
-0.0201879
-0.0199022
-0.0198217
-0.0198015
-0.0197175
-0.0196139
-0.0194846
-0.0193079
-0.0191632
-0.0190994
-0.0190796
-0.0190375
-0.0189733
-0.0189574
-0.018996
-0.0189963
-0.0189499
-0.0189456
-0.0190186
-0.0191126
-0.0191909
-0.0193161
-0.0195571
-0.0198369
-0.019999
-0.0200121
-0.0199789
-0.0199809
-0.0200165
-0.020049
-0.020052
-0.0200804
-0.0201485
-0.020241
-0.0203945
-0.0206062
-0.0207658
-0.0208223
-0.0208273
-0.0208618
-0.0209247
-0.0210125
-0.0211237
-0.0212353
-0.0213225
-0.021394
-0.02147
-0.0215654
-0.0216873
-0.0217806
-0.0218628
-0.0219712
-0.0220581
-0.022116
-0.0221826
-0.0222787
-0.0223607
-0.0224519
-0.022532
-0.0225999
-0.0226727
-0.0227569
-0.0228375
-0.0229044
-0.0229859
-0.0230925
-0.0232379
-0.0233454
-0.0234459
-0.0235166
-0.0236074
-0.0236958
-0.0238289
-0.0239514
-0.0240703
-0.0241764
-0.0242751
-0.024423
-0.024495
-0.0246269
-0.0247497
-0.0248562
-0.0249639
-0.0250166
-0.0250166
-0.0248335
-0.0246967
-0.0136473
-0.0143022
-0.0184894
-0.0227363
-0.0242164
-0.0233848
-0.0217689
-0.0204897
-0.0199882
-0.0200802
-0.0203628
-0.0205464
-0.02047
-0.020163
-0.0198877
-0.019811
-0.019791
-0.0197076
-0.0196063
-0.0194796
-0.0193048
-0.0191604
-0.0190959
-0.0190763
-0.0190357
-0.0189729
-0.0189566
-0.0189942
-0.0189944
-0.018949
-0.0189451
-0.0190174
-0.0191106
-0.0191888
-0.0193146
-0.0195558
-0.0198355
-0.0199977
-0.0200109
-0.0199778
-0.0199798
-0.0200153
-0.0200479
-0.0200511
-0.0200795
-0.0201475
-0.02024
-0.0203936
-0.0206056
-0.0207654
-0.0208219
-0.0208268
-0.0208613
-0.0209242
-0.021012
-0.0211233
-0.0212349
-0.0213222
-0.0213936
-0.0214696
-0.0215651
-0.021687
-0.0217804
-0.0218625
-0.0219709
-0.0220579
-0.0221158
-0.0221824
-0.0222785
-0.0223605
-0.0224517
-0.0225318
-0.0225997
-0.0226725
-0.0227567
-0.0228373
-0.0229043
-0.0229857
-0.0230924
-0.0232378
-0.0233452
-0.0234458
-0.0235164
-0.0236072
-0.0236957
-0.0238287
-0.0239513
-0.0240702
-0.0241763
-0.024275
-0.0244229
-0.0244949
-0.0246268
-0.0247497
-0.0248561
-0.0249638
-0.0250166
-0.0250167
-0.0248337
-0.024696
-0.0140044
-0.0144235
-0.0181889
-0.0223741
-0.0240078
-0.0233086
-0.0217413
-0.0204677
-0.0199646
-0.0200559
-0.0203332
-0.0205087
-0.020432
-0.0201356
-0.0198715
-0.0197983
-0.0197771
-0.0196942
-0.0195957
-0.0194729
-0.019301
-0.0191571
-0.0190917
-0.019072
-0.0190335
-0.0189726
-0.0189562
-0.0189922
-0.0189923
-0.0189484
-0.0189453
-0.0190165
-0.0191085
-0.0191867
-0.0193131
-0.0195544
-0.0198336
-0.0199955
-0.0200092
-0.0199765
-0.0199783
-0.0200137
-0.0200465
-0.0200501
-0.0200783
-0.0201462
-0.0202386
-0.0203926
-0.0206048
-0.0207647
-0.0208212
-0.0208261
-0.0208606
-0.0209236
-0.0210114
-0.0211227
-0.0212345
-0.0213217
-0.0213931
-0.0214692
-0.0215647
-0.0216866
-0.0217801
-0.0218622
-0.0219707
-0.0220577
-0.0221155
-0.0221822
-0.0222783
-0.0223603
-0.0224515
-0.0225317
-0.0225995
-0.0226723
-0.0227565
-0.0228372
-0.0229041
-0.0229855
-0.0230922
-0.0232376
-0.0233451
-0.0234456
-0.0235163
-0.023607
-0.0236955
-0.0238286
-0.0239512
-0.02407
-0.0241762
-0.0242749
-0.0244228
-0.0244948
-0.0246267
-0.0247496
-0.0248561
-0.0249638
-0.0250166
-0.0250169
-0.0248341
-0.0246952
-0.014345
-0.0145725
-0.0178917
-0.0219949
-0.023784
-0.0232266
-0.0217137
-0.0204456
-0.0199389
-0.0200293
-0.0203019
-0.0204694
-0.0203923
-0.0201069
-0.0198546
-0.0197843
-0.0197611
-0.0196781
-0.0195827
-0.0194644
-0.0192962
-0.0191534
-0.0190869
-0.0190669
-0.0190306
-0.0189723
-0.0189557
-0.0189899
-0.0189901
-0.0189483
-0.0189461
-0.019016
-0.0191064
-0.0191847
-0.019312
-0.0195532
-0.0198311
-0.0199923
-0.0200067
-0.0199747
-0.0199765
-0.0200117
-0.0200449
-0.0200491
-0.0200772
-0.0201446
-0.0202371
-0.0203913
-0.0206038
-0.0207638
-0.0208204
-0.0208253
-0.0208597
-0.0209227
-0.0210107
-0.0211221
-0.0212339
-0.0213211
-0.0213926
-0.0214687
-0.0215641
-0.0216861
-0.0217796
-0.0218619
-0.0219704
-0.0220574
-0.0221152
-0.0221819
-0.0222781
-0.02236
-0.0224513
-0.0225315
-0.0225993
-0.022672
-0.0227563
-0.022837
-0.0229039
-0.0229853
-0.023092
-0.0232375
-0.0233449
-0.0234455
-0.0235161
-0.0236069
-0.0236953
-0.0238284
-0.023951
-0.0240699
-0.024176
-0.0242747
-0.0244227
-0.0244947
-0.0246266
-0.0247495
-0.024856
-0.0249638
-0.0250166
-0.0250172
-0.0248347
-0.0246944
-0.0146591
-0.0147485
-0.0176072
-0.0216023
-0.0235439
-0.0231369
-0.0216854
-0.0204237
-0.0199115
-0.0200004
-0.020269
-0.020429
-0.0203513
-0.0200771
-0.0198369
-0.0197697
-0.0197438
-0.0196602
-0.0195679
-0.0194545
-0.0192906
-0.0191492
-0.0190817
-0.0190614
-0.0190273
-0.0189716
-0.0189548
-0.0189873
-0.0189877
-0.0189484
-0.0189473
-0.0190157
-0.0191043
-0.0191831
-0.0193118
-0.0195526
-0.0198286
-0.0199885
-0.0200032
-0.019972
-0.0199738
-0.0200089
-0.020043
-0.0200481
-0.0200763
-0.0201431
-0.0202355
-0.0203899
-0.0206025
-0.0207625
-0.0208192
-0.0208242
-0.0208587
-0.0209218
-0.0210098
-0.0211214
-0.0212331
-0.0213203
-0.0213918
-0.021468
-0.0215634
-0.0216855
-0.0217791
-0.0218615
-0.02197
-0.022057
-0.0221149
-0.0221816
-0.0222778
-0.0223598
-0.0224511
-0.0225313
-0.022599
-0.0226718
-0.0227561
-0.0228368
-0.0229036
-0.022985
-0.0230917
-0.0232373
-0.0233447
-0.0234453
-0.0235159
-0.0236067
-0.0236951
-0.0238282
-0.0239509
-0.0240697
-0.0241759
-0.0242745
-0.0244225
-0.0244945
-0.0246265
-0.0247494
-0.024856
-0.0249638
-0.0250166
-0.0250176
-0.0248356
-0.0246935
-0.014939
-0.0149501
-0.0173444
-0.0211989
-0.023285
-0.0230371
-0.0216552
-0.0204022
-0.0198826
-0.0199691
-0.0202345
-0.0203874
-0.020309
-0.020046
-0.0198184
-0.0197544
-0.0197256
-0.019641
-0.0195518
-0.0194435
-0.0192841
-0.0191445
-0.0190762
-0.0190556
-0.0190237
-0.0189705
-0.0189536
-0.0189844
-0.0189853
-0.0189487
-0.0189489
-0.0190155
-0.0191023
-0.0191819
-0.0193125
-0.0195531
-0.0198265
-0.0199844
-0.0199992
-0.0199685
-0.0199701
-0.0200051
-0.0200404
-0.0200472
-0.0200756
-0.0201419
-0.0202341
-0.0203887
-0.0206012
-0.020761
-0.0208178
-0.0208229
-0.0208575
-0.0209206
-0.0210088
-0.0211205
-0.0212322
-0.0213193
-0.0213908
-0.0214672
-0.0215625
-0.0216845
-0.0217783
-0.0218609
-0.0219695
-0.0220564
-0.0221144
-0.0221812
-0.0222774
-0.0223594
-0.0224509
-0.0225311
-0.0225988
-0.0226716
-0.0227559
-0.0228365
-0.0229034
-0.0229848
-0.0230915
-0.0232371
-0.0233446
-0.0234451
-0.0235157
-0.0236064
-0.0236949
-0.023828
-0.0239507