/*--------------------------------*- C++ -*----------------------------------*\
| =========                 |                                                 |
| \\      /  F ield         | OpenFOAM: The Open Source CFD Toolbox           |
|  \\    /   O peration     | Version:  2506                                  |
|   \\  /    A nd           | Website:  www.openfoam.com                      |
|    \\/     M anipulation  |                                                 |
\*---------------------------------------------------------------------------*/
FoamFile
{
    version     2.0;
    format      ascii;
    arch        "LSB;label=32;scalar=64";
    class       surfaceScalarField;
    location    "10";
    object      phi;
}
// * * * * * * * * * * * * * * * * * * * * * * * * * * * * * * * * * * * * * //

dimensions      [0 3 -1 0 0 0 0];

oriented        oriented;

internalField   nonuniform List<scalar> 
19000
(
1.2058e-06
1.52714e-06
1.1898e-06
-3.5364e-07
1.1349e-06
-2.78805e-07
1.13659e-06
-3.75303e-07
1.23053e-06
1.91886e-06
1.05336e-06
-9.06411e-07
1.11342e-06
2.21749e-07
1.13116e-06
8.00592e-07
1.10594e-06
-2.83084e-07
1.17756e-06
5.45859e-07
1.14468e-06
1.88419e-07
1.13801e-06
4.91481e-07
1.14023e-06
4.44292e-07
1.12561e-06
2.31798e-07
1.14272e-06
7.81329e-07
1.10253e-06
2.16734e-07
1.12905e-06
7.09615e-07
1.09204e-06
2.96525e-07
1.1061e-06
4.02938e-07
2.52484e-07
1.07734e-06
1.25695e-06
1.49446e-06
1.24339e-06
-3.40084e-07
1.1863e-06
-2.21716e-07
1.18962e-06
-3.78615e-07
1.28539e-06
1.82308e-06
1.10227e-06
-7.23284e-07
1.16474e-06
1.59277e-07
1.19071e-06
7.74618e-07
1.16212e-06
-2.54488e-07
1.24222e-06
4.65757e-07
1.20434e-06
2.26294e-07
1.20054e-06
4.95286e-07
1.19688e-06
4.47954e-07
1.18725e-06
2.41425e-07
1.18978e-06
7.78796e-07
1.16722e-06
2.39296e-07
1.16561e-06
7.11221e-07
1.16325e-06
2.9889e-07
1.13895e-06
4.27236e-07
2.29313e-07
1.16212e-06
1.31014e-06
1.4671e-06
1.29926e-06
-3.29204e-07
1.24196e-06
-1.64421e-07
1.2413e-06
-3.77956e-07
1.33918e-06
1.72521e-06
1.16246e-06
-5.46561e-07
1.21605e-06
1.0568e-07
1.26003e-06
7.30641e-07
1.22518e-06
-2.19641e-07
1.30788e-06
3.83056e-07
1.26927e-06
2.64905e-07
1.26951e-06
4.95051e-07
1.25709e-06
4.60375e-07
1.2543e-06
2.44209e-07
1.24974e-06
7.83362e-07
1.23496e-06
2.54071e-07
1.22804e-06
7.18143e-07
1.2292e-06
2.97729e-07
1.2158e-06
4.40638e-07
2.30203e-07
1.21491e-06
1.36494e-06
1.44626e-06
1.35977e-06
-3.24032e-07
1.30233e-06
-1.06982e-07
1.29395e-06
-3.69571e-07
1.39169e-06
1.62747e-06
1.23702e-06
-3.9189e-07
1.27022e-06
7.2481e-08
1.33487e-06
6.65988e-07
1.29228e-06
-1.77049e-07
1.36588e-06
3.09449e-07
1.33452e-06
2.96267e-07
1.33373e-06
4.95842e-07
1.3173e-06
4.76803e-07
1.31703e-06
2.44481e-07
1.31614e-06
7.84255e-07
1.30206e-06
2.68146e-07
1.2994e-06
7.20805e-07
1.29382e-06
3.0331e-07
1.29174e-06
4.42713e-07
2.42476e-07
1.27947e-06
1.42249e-06
1.43212e-06
1.4246e-06
-3.26142e-07
1.36848e-06
-5.0858e-08
1.35036e-06
-3.51456e-07
1.44367e-06
1.53416e-06
1.32482e-06
-2.73041e-07
1.33e-06
6.73103e-08
1.40679e-06
5.89198e-07
1.36194e-06
-1.32201e-07
1.41473e-06
2.5666e-07
1.39855e-06
3.12443e-07
1.39416e-06
5.00232e-07
1.37669e-06
4.94276e-07
1.37448e-06
2.46686e-07
1.37881e-06
7.79933e-07
1.3645e-06
2.82453e-07
1.36611e-06
7.19193e-07
1.35576e-06
3.13658e-07
1.35923e-06
4.39244e-07
2.56639e-07
1.34507e-06
1.48422e-06
1.42358e-06
1.49277e-06
-3.34694e-07
1.44075e-06
1.16602e-09
1.41353e-06
-3.24238e-07
1.49733e-06
1.45036e-06
1.41964e-06
-1.95354e-07
1.39816e-06
8.87908e-08
1.47262e-06
5.14743e-07
1.4342e-06
-9.3785e-08
1.46317e-06
2.2769e-07
1.46239e-06
3.13218e-07
1.45702e-06
5.0561e-07
1.4394e-06
5.11889e-07
1.43172e-06
2.54368e-07
1.4375e-06
7.74153e-07
1.42354e-06
2.96418e-07
1.42886e-06
7.13866e-07
1.4178e-06
3.24716e-07
1.42591e-06
4.31138e-07
2.69057e-07
1.41349e-06
1.55135e-06
1.41845e-06
1.56349e-06
-3.46827e-07
1.51866e-06
4.59944e-08
1.48507e-06
-2.90651e-07
1.55548e-06
1.37995e-06
1.51465e-06
-1.54522e-07
1.47551e-06
1.27929e-07
1.53655e-06
4.53708e-07
1.50988e-06
-6.71177e-08
1.52059e-06
2.16976e-07
1.52892e-06
3.04887e-07
1.52582e-06
5.08715e-07
1.50943e-06
5.28283e-07
1.49505e-06
2.68743e-07
1.49882e-06
7.70387e-07
1.48524e-06
3.09992e-07
1.4943e-06
7.04809e-07
1.48528e-06
3.3374e-07
1.49841e-06
4.18003e-07
2.78874e-07
1.4886e-06
1.62443e-06
1.41414e-06
1.63657e-06
-3.5897e-07
1.60096e-06
8.16112e-08
1.5648e-06
-2.5449e-07
1.62053e-06
1.32421e-06
1.60619e-06
-1.40177e-07
1.56016e-06
1.7396e-07
1.60438e-06
4.0948e-07
1.58919e-06
-5.19254e-08
1.58999e-06
2.16174e-07
1.60063e-06
2.9425e-07
1.60049e-06
5.0886e-07
1.58678e-06
5.41993e-07
1.56763e-06
2.87886e-07
1.56875e-06
7.69272e-07
1.55542e-06
3.23316e-07
1.56809e-06
6.92145e-07
1.56156e-06
3.40271e-07
1.57922e-06
4.00343e-07
2.86554e-07
1.57154e-06
1.70322e-06
1.4085e-06
1.71245e-06
-3.68203e-07
1.68617e-06
1.07891e-07
1.65134e-06
-2.19657e-07
1.69367e-06
1.28187e-06
1.69408e-06
-1.40583e-07
1.64915e-06
2.18889e-07
1.67937e-06
3.79256e-07
1.67206e-06
-4.46144e-08
1.66896e-06
2.1927e-07
1.67797e-06
2.85246e-07
1.67958e-06
5.07247e-07
1.66903e-06
5.52548e-07
1.64867e-06
3.08247e-07
1.64899e-06
7.68952e-07
1.63618e-06
3.36119e-07
1.65222e-06
6.76109e-07
1.64706e-06
3.45425e-07
1.6677e-06
3.79704e-07
2.92875e-07
1.66138e-06
1.78705e-06
1.40018e-06
1.79181e-06
-3.72964e-07
1.77333e-06
1.26369e-07
1.74303e-06
-1.89356e-07
1.77474e-06
1.25016e-06
1.78022e-06
-1.46061e-07
1.74064e-06
2.58467e-07
1.76189e-06
3.58003e-07
1.7586e-06
-4.13177e-08
1.75404e-06
2.2383e-07
1.76007e-06
2.79211e-07
1.7621e-06
5.05217e-07
1.75432e-06
5.60327e-07
1.73584e-06
3.26733e-07
1.73792e-06
7.66872e-07
1.72624e-06
3.47801e-07
1.74548e-06
6.5686e-07
1.74036e-06
3.50548e-07
1.76204e-06
3.58026e-07
2.98391e-07
1.75652e-06
1.87527e-06
1.38866e-06
1.87528e-06
-3.72971e-07
1.86232e-06
1.39325e-07
1.83845e-06
-1.65482e-07
1.86269e-06
1.22592e-06
1.86716e-06
-1.50527e-07
1.83445e-06
2.9117e-07
1.85078e-06
3.41678e-07
1.8489e-06
-3.94397e-08
1.84327e-06
2.29458e-07
1.84634e-06
2.76147e-07
1.84809e-06
5.03464e-07
1.84253e-06
5.65888e-07
1.8276e-06
3.41657e-07
1.8333e-06
7.61176e-07
1.82317e-06
3.5793e-07
1.84541e-06
6.34625e-07
1.83949e-06
3.56465e-07
1.86042e-06
3.37093e-07
3.03291e-07
1.85552e-06
1.9675e-06
1.37399e-06
1.96323e-06
-3.68701e-07
1.95368e-06
1.4888e-07
1.93654e-06
-1.48346e-07
1.95618e-06
1.20628e-06
1.95705e-06
-1.5139e-07
1.93115e-06
3.17068e-07
1.94456e-06
3.28265e-07
1.9429e-06
-3.7783e-08
1.93623e-06
2.3613e-07
1.9369e-06
2.75477e-07
1.9383e-06
5.0207e-07
1.93457e-06
5.69614e-07
1.92362e-06
3.52606e-07
1.9337e-06
7.51094e-07
1.9251e-06
3.66529e-07
1.94975e-06
6.09973e-07
1.94277e-06
3.63447e-07
1.96152e-06
3.18348e-07
3.07455e-07
1.95735e-06
2.06365e-06
1.35653e-06
2.05582e-06
-3.60872e-07
2.04821e-06
1.56494e-07
2.03675e-06
-1.36888e-07
2.05414e-06
1.18888e-06
2.05117e-06
-1.48413e-07
2.03111e-06
3.37123e-07
2.04221e-06
3.17168e-07
2.04052e-06
-3.60927e-08
2.03299e-06
2.43659e-07
2.03209e-06
2.76381e-07
2.03343e-06
5.0073e-07
2.03134e-06
5.71702e-07
2.02399e-06
3.59959e-07
2.03835e-06
7.36733e-07
2.03087e-06
3.74006e-07
2.05698e-06
5.83859e-07
2.04908e-06
3.71355e-07
2.06457e-06
3.02855e-07
3.10564e-07
2.06146e-06
2.1638e-06
1.33673e-06
2.15311e-06
-3.50187e-07
2.1467e-06
1.62909e-07
2.13909e-06
-1.29275e-07
2.15599e-06
1.17197e-06
2.14994e-06
-1.42362e-07
2.13445e-06
3.52612e-07
2.14337e-06
3.08252e-07
2.14181e-06
-3.45292e-08
2.13355e-06
2.51912e-07
2.13189e-06
2.78042e-07
2.13366e-06
4.98963e-07
2.13308e-06
5.72281e-07
2.12857e-06
3.6447e-07
2.14656e-06
7.18741e-07
2.1397e-06
3.80866e-07
2.16614e-06
5.57416e-07
2.15775e-06
3.79749e-07
2.16941e-06
2.91194e-07
3.12223e-07
2.16775e-06
2.26813e-06
1.3151e-06
2.25526e-06
-3.3732e-07
2.24981e-06
1.68361e-07
2.24413e-06
-1.23602e-07
2.26164e-06
1.15446e-06
2.25332e-06
-1.3404e-07
2.24143e-06
3.64506e-07
2.24826e-06
3.0142e-07
2.24696e-06
-3.32299e-08
2.23792e-06
2.60949e-07
2.23615e-06
2.79819e-07
2.23882e-06
4.96295e-07
2.23957e-06
5.71528e-07
2.23701e-06
3.67032e-07
2.25769e-06
6.98055e-07
2.25108e-06
3.87477e-07
2.27684e-06
5.31664e-07
2.26862e-06
3.87967e-07
2.27642e-06
2.83387e-07
3.12115e-07
2.27653e-06
2.37685e-06
1.29212e-06
2.3625e-06
-3.22969e-07
2.35801e-06
1.72852e-07
2.35274e-06
-1.18337e-07
2.37135e-06
1.13586e-06
2.36126e-06
-1.23953e-07
2.35269e-06
3.7308e-07
2.35741e-06
2.96699e-07
2.35624e-06
-3.20607e-08
2.34633e-06
2.70852e-07
2.34487e-06
2.81278e-07
2.34879e-06
4.92375e-07
2.35063e-06
5.69694e-07
2.34915e-06
3.68511e-07
2.37145e-06
6.75752e-07
2.36496e-06
3.93967e-07
2.38926e-06
5.0736e-07
2.38194e-06
3.95295e-07
2.38635e-06
2.78977e-07
3.10116e-07
2.38834e-06
2.49027e-06
1.26824e-06
2.47512e-06
-3.07813e-07
2.47163e-06
1.76339e-07
2.46566e-06
-1.12372e-07
2.4855e-06
1.11602e-06
2.47396e-06
-1.12411e-07
2.46895e-06
3.78095e-07
2.47129e-06
2.9435e-07
2.46988e-06
-3.06507e-08
2.45923e-06
2.81505e-07
2.45837e-06
2.82138e-07
2.46375e-06
4.86998e-07
2.46635e-06
5.67088e-07
2.46527e-06
3.69594e-07
2.48812e-06
6.52904e-07
2.48175e-06
4.00332e-07
2.50416e-06
4.8496e-07
2.49827e-06
4.01185e-07
2.49995e-06
2.77296e-07
3.06323e-07
2.50374e-06
2.60877e-06
1.24377e-06
2.59331e-06
-2.92349e-07
2.59087e-06
1.78779e-07
2.58333e-06
-1.0484e-07
2.60451e-06
1.09484e-06
2.59182e-06
-9.97174e-08
2.59055e-06
3.7937e-07
2.59019e-06
2.94703e-07
2.58821e-06
-2.86718e-08
2.5771e-06
2.92616e-07
2.57696e-06
2.8228e-07
2.5839e-06
4.80057e-07
2.58696e-06
5.64031e-07
2.58588e-06
3.70679e-07
2.60837e-06
6.30405e-07
2.60217e-06
4.0654e-07
2.62247e-06
4.64658e-07
2.61828e-06
4.05371e-07
2.61789e-06
2.77686e-07
3.00982e-07
2.62323e-06
2.73278e-06
1.21881e-06
2.7172e-06
-2.76769e-07
2.71587e-06
1.80115e-07
2.70605e-06
-9.50263e-08
2.7288e-06
1.0721e-06
2.71525e-06
-8.61693e-08
2.71742e-06
3.772e-07
2.71423e-06
2.9789e-07
2.71167e-06
-2.61117e-08
2.70039e-06
3.03897e-07
2.70082e-06
2.81852e-07
2.70937e-06
4.71503e-07
2.71259e-06
5.60816e-07
2.71139e-06
3.71877e-07
2.73297e-06
6.08819e-07
2.72692e-06
4.1259e-07
2.74518e-06
4.46406e-07
2.74271e-06
4.07834e-07
2.74078e-06
2.79617e-07
2.94401e-07
2.74736e-06
2.86275e-06
1.19333e-06
2.84694e-06
-2.60957e-07
2.8468e-06
1.80248e-07
2.83422e-06
-8.24393e-08
2.8588e-06
1.04751e-06
2.84456e-06
-7.19275e-08
2.84948e-06
3.72275e-07
2.84363e-06
3.03748e-07
2.8408e-06
-2.32883e-08
2.82955e-06
3.15155e-07
2.83009e-06
2.81313e-07
2.84025e-06
4.61338e-07
2.84341e-06
5.57659e-07
2.84214e-06
3.73142e-07
2.86264e-06
5.88322e-07
2.85675e-06
4.18481e-07
2.87317e-06
4.2998e-07
2.87238e-06
4.08631e-07
2.86925e-06
2.82746e-07
2.86904e-07
2.87674e-06
2.99906e-06
1.16717e-06
2.98272e-06
-2.44612e-07
2.98392e-06
1.7905e-07
2.96839e-06
-6.69125e-08
2.99501e-06
1.02089e-06
2.98001e-06
-5.69252e-08
2.98697e-06
3.65311e-07
2.97881e-06
3.11915e-07
2.97613e-06
-2.06161e-08
2.96508e-06
3.26205e-07
2.96508e-06
2.81314e-07
2.97681e-06
4.49613e-07
2.9798e-06
5.54668e-07
2.97853e-06
3.74406e-07
2.9981e-06
5.68754e-07
2.99237e-06
4.24216e-07
3.00724e-06
4.15108e-07
3.00814e-06
4.07736e-07
3.00396e-06
2.86924e-07
2.78839e-07
3.01202e-06
3.14206e-06
1.14011e-06
3.12484e-06
-2.2739e-07
3.1275e-06
1.76393e-07
3.10915e-06
-4.85679e-08
3.13787e-06
9.9218e-07
3.12186e-06
-4.09159e-08
3.13038e-06
3.56785e-07
3.12032e-06
3.21982e-07
3.11805e-06
-1.83536e-08
3.1075e-06
3.36757e-07
3.10631e-06
2.82507e-07
3.1195e-06
4.36422e-07
3.12233e-06
5.51832e-07
3.12106e-06
3.75678e-07
3.14006e-06
5.4976e-07
3.13447e-06
4.29798e-07
3.14803e-06
4.01555e-07
3.1507e-06
4.05065e-07
3.14559e-06
2.92034e-07
2.70716e-07
3.15371e-06
3.29203e-06
1.11199e-06
3.27363e-06
-2.08992e-07
3.27787e-06
1.72159e-07
3.25697e-06
-2.76732e-08
3.28772e-06
9.61429e-07
3.27043e-06
-2.36181e-08
3.28028e-06
3.46934e-07
3.26871e-06
3.3355e-07
3.26684e-06
-1.64832e-08
3.25721e-06
3.46391e-07
3.25431e-06
2.85402e-07
3.26884e-06
4.21894e-07
3.27164e-06
5.49032e-07
3.27022e-06
3.77095e-07
3.28905e-06
5.30928e-07
3.2837e-06
4.35157e-07
3.29589e-06
3.89356e-07
3.30058e-06
4.00379e-07
3.29472e-06
2.97895e-07
2.63239e-07
3.3022e-06
3.44927e-06
1.08265e-06
3.42946e-06
-1.89177e-07
3.43537e-06
1.66241e-07
3.41221e-06
-4.5065e-09
3.44487e-06
9.28769e-07
3.4261e-06
-4.84694e-09
3.43712e-06
3.35906e-07
3.42446e-06
3.46213e-07
3.42273e-06
-1.47568e-08
3.41449e-06
3.5463e-07
3.40958e-06
2.90322e-07
3.42525e-06
4.06219e-07
3.42825e-06
5.46031e-07
3.42641e-06
3.78932e-07
3.44547e-06
5.11873e-07
3.44052e-06
4.40103e-07
3.45105e-06
3.78826e-07
3.45801e-06
3.9342e-07
3.45181e-06
3.04093e-07
2.57234e-07
3.45782e-06
3.61408e-06
1.05198e-06
3.59265e-06
-1.67752e-07
3.60035e-06
1.58545e-07
3.57514e-06
2.06981e-08
3.60954e-06
8.94378e-07
3.58927e-06
1.54148e-08
3.60129e-06
3.23892e-07
3.58799e-06
3.59516e-07
3.586e-06
-1.27753e-08
3.57961e-06
3.61023e-07
3.57252e-06
2.97413e-07
3.58907e-06
3.89672e-07
3.5926e-06
5.42497e-07
3.58999e-06
3.81538e-07
3.60951e-06
4.92356e-07
3.60534e-06
4.44278e-07
3.61376e-06
3.70402e-07
3.62301e-06
3.84168e-07
3.61724e-06
3.09861e-07
2.53497e-07
3.62098e-06
3.78678e-06
1.01991e-06
3.76359e-06
-1.4456e-07
3.77314e-06
1.48995e-07
3.7461e-06
4.77372e-08
3.78198e-06
8.58493e-07
3.7604e-06
3.70001e-08
3.7731e-06
3.11188e-07
3.75968e-06
3.72939e-07
3.75697e-06
-1.00613e-08
3.7528e-06
3.65192e-07
3.74354e-06
3.06672e-07
3.76056e-06
3.72645e-07
3.76506e-06
5.38002e-07
3.76131e-06
3.85288e-07
3.78134e-06
4.72325e-07
3.77846e-06
4.4716e-07
3.78433e-06
3.64534e-07
3.79561e-06
3.72884e-07
3.79121e-06
3.14267e-07
2.52431e-07
3.79227e-06
3.96773e-06
9.86362e-07
3.94264e-06
-1.19468e-07
3.95409e-06
1.37549e-07
3.92543e-06
7.63939e-08
3.9625e-06
8.21419e-07
3.93992e-06
5.95841e-08
3.9529e-06
2.98203e-07
3.93994e-06
3.85905e-07
3.93599e-06
-6.11246e-09
3.93431e-06
3.66873e-07
3.92304e-06
3.17938e-07
3.94002e-06
3.55667e-07
3.94597e-06
5.32058e-07
3.94079e-06
3.90468e-07
3.96111e-06
4.51999e-07
3.96016e-06
4.4811e-07
3.96329e-06
3.61405e-07
3.97586e-06
3.60314e-07
3.97378e-06
3.16352e-07
2.53842e-07
3.97236e-06
4.1573e-06
9.51315e-07
4.13022e-06
-9.23896e-08
4.14354e-06
1.24225e-07
4.11354e-06
1.06395e-07
4.15141e-06
7.83549e-07
4.1283e-06
8.26992e-08
4.14105e-06
2.85453e-07
4.12915e-06
3.97806e-07
4.1235e-06
-4.68802e-10
4.12442e-06
3.65957e-07
4.11148e-06
3.30878e-07
4.12777e-06
3.39376e-07
4.13563e-06
5.24197e-07
4.12895e-06
3.97148e-07
4.14907e-06
4.3188e-07
4.15063e-06
4.46547e-07
4.15124e-06
3.60796e-07
4.16404e-06
3.47513e-07
4.16494e-06
3.15453e-07
2.56899e-07
4.16189e-06
4.35587e-06
9.14751e-07
4.32677e-06
-6.32945e-08
4.34188e-06
1.09118e-07
4.31088e-06
1.37388e-07
4.34908e-06
7.45354e-07
4.32601e-06
1.05765e-07
4.33792e-06
2.73545e-07
4.32767e-06
4.08057e-07
4.31998e-06
7.2246e-09
4.32342e-06
3.62516e-07
4.3093e-06
3.44999e-07
4.32424e-06
3.24433e-07
4.33436e-06
5.14075e-07
4.32635e-06
4.05162e-07
4.34556e-06
4.12671e-07
4.35012e-06
4.41985e-07
4.34871e-06
3.62204e-07
4.3606e-06
3.35625e-07
4.36475e-06
3.11298e-07
2.60447e-07
4.3612e-06
4.56384e-06
8.76688e-07
4.53277e-06
-3.22303e-08
4.54948e-06
9.24143e-08
4.51792e-06
1.68945e-07
4.5559e-06
7.07373e-07
4.53354e-06
1.28127e-07
4.54397e-06
2.63116e-07
4.53585e-06
4.16173e-07
4.52593e-06
1.71432e-08
4.53164e-06
3.56812e-07
4.51695e-06
3.59689e-07
4.52992e-06
3.11461e-07
4.54247e-06
5.01528e-07
4.53355e-06
4.14076e-07
4.55098e-06
3.95245e-07
4.55885e-06
4.34114e-07
4.55615e-06
3.64906e-07
4.56623e-06
3.25539e-07
4.5732e-06
3.04338e-07
2.63045e-07
4.5706e-06
4.78163e-06
8.37171e-07
4.74873e-06
6.71919e-10
4.76676e-06
7.43854e-08
4.73514e-06
2.00565e-07
4.7723e-06
6.7021e-07
4.75136e-06
1.49071e-07
4.7597e-06
2.54773e-07
4.75403e-06
4.21846e-07
4.7419e-06
2.92684e-08
4.74947e-06
3.49245e-07
4.73487e-06
3.74285e-07
4.74536e-06
3.00976e-07
4.76031e-06
4.86577e-07
4.75109e-06
4.23295e-07
4.76597e-06
3.8037e-07
4.77706e-06
4.23025e-07
4.77407e-06
3.67897e-07
4.78165e-06
3.17949e-07
4.79061e-06
2.9538e-07
2.63538e-07
4.79012e-06
5.00968e-06
7.96284e-07
4.97516e-06
3.52015e-08
4.99416e-06
5.53759e-08
4.96305e-06
2.31684e-07
4.99871e-06
6.34545e-07
4.97996e-06
1.6782e-07
4.98568e-06
2.49052e-07
4.98252e-06
4.25006e-07
4.96843e-06
4.3359e-08
4.97736e-06
3.40315e-07
4.96351e-06
3.8814e-07
4.97116e-06
2.93321e-07
4.9883e-06
4.69441e-07
4.97949e-06
4.32108e-07
4.9912e-06
3.68655e-07
5.00513e-06
4.09091e-07
5.00291e-06
3.70116e-07
5.00775e-06
3.13116e-07
5.01747e-06
2.8566e-07
2.61219e-07
5.01979e-06
5.24846e-06
7.54142e-07
5.21258e-06
7.10792e-08
5.23217e-06
3.57913e-08
5.20218e-06
2.61674e-07
5.23559e-06
6.01128e-07
5.21985e-06
1.83558e-07
5.22253e-06
2.46375e-07
5.22169e-06
4.25843e-07
5.20608e-06
5.89701e-08
5.21583e-06
3.30572e-07
5.20327e-06
4.00692e-07
5.20797e-06
2.88624e-07
5.22688e-06
4.50533e-07
5.2192e-06
4.39789e-07
5.2275e-06
3.60353e-07
5.24353e-06
3.93056e-07
5.24303e-06
3.70623e-07
5.24532e-06
3.10822e-07
5.25458e-06
2.76403e-07
2.56194e-07
5.2596e-06
5.49844e-06
7.10896e-07
5.46155e-06
1.07964e-07
5.48124e-06
1.60991e-08
5.45308e-06
2.89836e-07
5.48344e-06
5.70771e-07
5.47136e-06
1.95637e-07
5.47092e-06
2.46811e-07
5.47194e-06
4.24825e-07
5.45541e-06
7.5502e-08
5.46544e-06
3.20539e-07
5.45464e-06
4.11496e-07
5.4564e-06
2.86863e-07
5.47658e-06
4.30353e-07
5.47069e-06
4.45675e-07
5.47556e-06
3.55483e-07
5.49286e-06
3.75752e-07
5.49475e-06
3.68742e-07
5.49501e-06
3.10562e-07
5.50289e-06
2.68518e-07
2.49287e-07
5.5098e-06
5.76013e-06
6.66725e-07
5.72263e-06
1.45468e-07
5.7419e-06
-3.17159e-09
5.71635e-06
3.1538e-07
5.74282e-06
5.44301e-07
5.73471e-06
2.03748e-07
5.73154e-06
2.49978e-07
5.73373e-06
4.22635e-07
5.71696e-06
9.22813e-08
5.72685e-06
3.10643e-07
5.71804e-06
4.2031e-07
5.71709e-06
2.87809e-07
5.73794e-06
4.09504e-07
5.73451e-06
4.49109e-07
5.73608e-06
3.53914e-07
5.75369e-06
3.58141e-07
5.7584e-06
3.64031e-07
5.75733e-06
3.11627e-07
5.76332e-06
2.6253e-07
2.41521e-07
5.77109e-06
6.03407e-06
6.21844e-07
5.9964e-06
1.83141e-07
6.01464e-06
-2.14118e-08
5.99261e-06
3.37413e-07
6.01442e-06
5.22487e-07
6.01025e-06
2.07916e-07
6.00509e-06
2.55145e-07
6.00765e-06
4.20068e-07
5.99124e-06
1.08698e-07
6.00069e-06
3.0119e-07
5.994e-06
4.26999e-07
5.99064e-06
2.91169e-07
6.0116e-06
3.88548e-07
6.01111e-06
4.49599e-07
6.00976e-06
3.55264e-07
6.02653e-06
3.41365e-07
6.03445e-06
3.56112e-07
6.03279e-06
3.13287e-07
6.03669e-06
2.58631e-07
2.33842e-07
6.04437e-06
6.32083e-06
5.76498e-07
6.28349e-06
2.20487e-07
6.30002e-06
-3.79407e-08
6.28249e-06
3.54935e-07
6.29903e-06
5.05954e-07
6.29839e-06
2.08554e-07
6.29223e-06
2.61308e-07
6.29438e-06
4.17912e-07
6.2787e-06
1.2438e-07
6.28767e-06
2.92224e-07
6.28309e-06
4.31577e-07
6.27763e-06
2.96627e-07
6.29817e-06
3.68012e-07
6.30099e-06
4.46778e-07
6.29723e-06
3.5902e-07
6.31215e-06
3.26444e-07
6.32321e-06
3.45059e-07
6.32193e-06
3.14562e-07
6.32371e-06
2.56854e-07
2.26869e-07
6.33068e-06
6.621e-06
5.3097e-07
6.58453e-06
2.5695e-07
6.5986e-06
-5.201e-08
6.58657e-06
3.66972e-07
6.59749e-06
4.95034e-07
6.59963e-06
2.06412e-07
6.59359e-06
2.67349e-07
6.59468e-06
4.16818e-07
6.57984e-06
1.39222e-07
6.58846e-06
2.83601e-07
6.5859e-06
4.34138e-07
6.57869e-06
3.03841e-07
6.59824e-06
3.48463e-07
6.60456e-06
4.40455e-07
6.59928e-06
3.64297e-07
6.61118e-06
3.14551e-07
6.62508e-06
3.31153e-07
6.62526e-06
3.14379e-07
6.62511e-06
2.57012e-07
2.21103e-07
6.63087e-06
6.93519e-06
4.85575e-07
6.90021e-06
2.91928e-07
6.91102e-06
-6.28237e-08
6.90521e-06
3.72784e-07
6.91068e-06
4.89562e-07
6.91456e-06
2.02535e-07
6.9098e-06
2.72106e-07
6.90939e-06
4.1723e-07
6.89517e-06
1.53443e-07
6.90373e-06
2.75041e-07
6.90312e-06
4.34744e-07
6.89442e-06
3.12546e-07
6.91246e-06
3.30419e-07
6.92231e-06
4.30608e-07
6.91645e-06
3.70151e-07
6.92458e-06
3.06421e-07
6.9405e-06
3.15233e-07
6.94317e-06
3.11717e-07
6.94167e-06
2.58511e-07
2.17044e-07
6.94573e-06
7.26405e-06
4.40659e-07
7.2312e-06
3.24776e-07
7.23793e-06
-6.95546e-08
7.23876e-06
3.71955e-07
7.23949e-06
4.8884e-07
7.24385e-06
1.98172e-07
7.24146e-06
2.74496e-07
7.23938e-06
4.19309e-07
7.22531e-06
1.67519e-07
7.23407e-06
2.66278e-07
7.23544e-06
4.33369e-07
7.2255e-06
3.22485e-07
7.24151e-06
3.14413e-07
7.25462e-06
4.17492e-07
7.24929e-06
3.7549e-07
7.25355e-06
3.02157e-07
7.26992e-06
2.98865e-07
7.27597e-06
3.05669e-07
7.27404e-06
2.60438e-07
2.15005e-07
7.27608e-06
7.60828e-06
3.96602e-07
7.57822e-06
3.54836e-07
7.58014e-06
-7.14676e-08
7.58761e-06
3.6448e-07
7.58476e-06
4.91695e-07
7.58822e-06
1.94704e-07
7.58904e-06
2.73684e-07
7.58558e-06
4.22769e-07
7.57094e-06
1.82157e-07
7.58003e-06
2.57187e-07
7.58361e-06
4.29791e-07
7.57263e-06
3.3346e-07
7.5861e-06
3.00949e-07
7.602e-06
4.01593e-07
7.59827e-06
3.7922e-07
7.59899e-06
3.01433e-07
7.61431e-06
2.83548e-07
7.62384e-06
2.96138e-07
7.62277e-06
2.61507e-07
2.14832e-07
7.62294e-06
7.96861e-06
3.53803e-07
7.94198e-06
3.81463e-07
7.93858e-06
-6.80603e-08
7.95223e-06
3.50827e-07
7.94726e-06
4.96659e-07
7.94844e-06
1.93525e-07
7.95296e-06
2.6917e-07
7.9488e-06
4.26926e-07
7.93294e-06
1.98022e-07
7.94217e-06
2.47953e-07
7.94821e-06
4.23749e-07
7.93666e-06
3.45017e-07
7.94684e-06
2.90766e-07
7.96502e-06
3.83407e-07
7.96385e-06
3.80389e-07
7.9619e-06
3.03391e-07
7.97484e-06
2.70599e-07
7.9872e-06
2.83778e-07
7.98818e-06
2.60526e-07
2.15877e-07
7.98714e-06
8.3458e-06
3.12685e-07
8.32322e-06
4.0404e-07
8.31425e-06
-5.90837e-08
8.33327e-06
3.31807e-07
8.32783e-06
5.0209e-07
8.3254e-06
1.95961e-07
8.33368e-06
2.60892e-07
8.32988e-06
4.30724e-07
8.31225e-06
2.1565e-07
8.32106e-06
2.3914e-07
8.32982e-06
4.14994e-07
8.31827e-06
3.56565e-07
8.32459e-06
2.84444e-07
8.34437e-06
3.63624e-07
8.3466e-06
3.78166e-07
8.34314e-06
3.06851e-07
8.35281e-06
2.60922e-07
8.3668e-06
2.6979e-07
8.37055e-06
2.56782e-07
2.17115e-07
8.36931e-06
8.74067e-06
2.73676e-07
8.72274e-06
4.21967e-07
8.70819e-06
-4.45268e-08
8.73148e-06
3.08516e-07
8.72727e-06
5.06304e-07
8.72024e-06
2.02991e-07
8.73166e-06
2.49468e-07
8.72958e-06
4.32799e-07
8.70989e-06
2.35349e-07
8.71731e-06
2.31714e-07
8.72877e-06
4.03531e-07
8.71815e-06
3.67187e-07
8.7204e-06
2.82198e-07
8.74081e-06
3.43215e-07
8.74703e-06
3.71945e-07
8.74338e-06
3.10502e-07
8.74949e-06
2.54806e-07
8.76372e-06
2.55559e-07
8.77028e-06
2.50224e-07
2.17508e-07
8.76989e-06
9.15409e-06
2.372e-07
9.14142e-06
4.34645e-07
9.12149e-06
-2.45989e-08
9.14775e-06
2.82252e-07
9.14633e-06
5.07723e-07
9.13405e-06
2.15276e-07
9.14752e-06
2.35994e-07
9.14838e-06
4.31937e-07
9.12685e-06
2.56887e-07
9.13153e-06
2.27029e-07
9.14563e-06
3.89431e-07
9.13708e-06
3.75743e-07
9.1356e-06
2.83669e-07
9.15527e-06
3.23549e-07
9.16569e-06
3.61529e-07
9.1632e-06
3.12992e-07
9.16617e-06
2.51839e-07
9.17921e-06
2.42515e-07
9.18816e-06
2.41271e-07
2.16342e-07
9.18933e-06
9.587e-06
2.03655e-07
9.58012e-06
4.41526e-07
9.55534e-06
1.83139e-10
9.58302e-06
2.54576e-07
9.58576e-06
5.04977e-07
9.56799e-06
2.33055e-07
9.58174e-06
2.22237e-07
9.58663e-06
4.2705e-07
9.56411e-06
2.79405e-07
9.5648e-06
2.26339e-07
9.58137e-06
3.72858e-07
9.57623e-06
3.80891e-07
9.57192e-06
2.87973e-07
9.58915e-06
3.06319e-07
9.60331e-06
3.47368e-07
9.60315e-06
3.13154e-07
9.6039e-06
2.51087e-07
9.61462e-06
2.31793e-07
9.62516e-06
2.30732e-07
2.1323e-07
9.62827e-06
1.00404e-05
1.73378e-07
1.00397e-05
4.42206e-07
1.0011e-05
2.89634e-08
1.00382e-05
2.27357e-07
1.00461e-05
4.97032e-07
1.00232e-05
2.55923e-07
1.00348e-05
2.10645e-07
1.00446e-05
4.17306e-07
1.00231e-05
3.00887e-07
1.00191e-05
2.30331e-07
1.00372e-05
3.54746e-07
1.00364e-05
3.8171e-07
1.00306e-05
2.93765e-07
1.00444e-05
2.92578e-07
1.00609e-05
3.30795e-07
1.00638e-05
3.10316e-07
1.00635e-05
2.51323e-07
1.00714e-05
2.23886e-07
1.00824e-05
2.19741e-07
2.08107e-07
1.00875e-05
1.05154e-05
1.46633e-07
1.05211e-05
4.36523e-07
1.04894e-05
6.06072e-08
1.05142e-05
2.02614e-07
1.0528e-05
4.83163e-07
1.05021e-05
2.81856e-07
1.05084e-05
2.04366e-07
1.05231e-05
4.02564e-07
1.05048e-05
3.19166e-07
1.04967e-05
2.38494e-07
1.05145e-05
3.36882e-07
1.05182e-05
3.78058e-07
1.05123e-05
2.99629e-07
1.05223e-05
2.82565e-07
1.05398e-05
3.13391e-07
1.05457e-05
3.04348e-07
1.05456e-05
2.51405e-07
1.0551e-05
2.18514e-07
1.05613e-05
2.09493e-07
2.01242e-07
1.05681e-05
1.10131e-05
1.23569e-07
1.10249e-05
4.2466e-07
1.09918e-05
9.38027e-08
1.10122e-05
1.82176e-07
1.10323e-05
4.63065e-07
1.10061e-05
3.08072e-07
1.10054e-05
2.05006e-07
1.10235e-05
3.84482e-07
1.10098e-05
3.32864e-07
1.09988e-05
2.4948e-07
1.10148e-05
3.20891e-07
1.10224e-05
3.70451e-07
1.10178e-05
3.04295e-07
1.10244e-05
2.75942e-07
1.10412e-05
2.96576e-07
1.10499e-05
2.9561e-07
1.10508e-05
2.50503e-07
1.10545e-05
2.14855e-07
1.10632e-05
2.00806e-07
1.93346e-07
1.10711e-05
1.15347e-05
1.04195e-07
1.15521e-05
4.07286e-07
1.15191e-05
1.26858e-07
1.15336e-05
1.67629e-07
1.15594e-05
4.37257e-07
1.15354e-05
3.32058e-07
1.15286e-05
2.11865e-07
1.15472e-05
3.65806e-07
1.15387e-05
3.41408e-07
1.15263e-05
2.6185e-07
1.15395e-05
3.07742e-07
1.15501e-05
3.59845e-07
1.15475e-05
3.06866e-07
1.15516e-05
2.71841e-07
1.15667e-05
2.81465e-07
1.15775e-05
2.84824e-07
1.15799e-05
2.48074e-07
1.15827e-05
2.12068e-07
1.15897e-05
1.93865e-07
1.85275e-07
1.15977e-05
1.20816e-05
8.83814e-08
1.21035e-05
3.85465e-07
1.20723e-05
1.57979e-07
1.208e-05
1.59928e-07
1.21102e-05
4.07097e-07
1.20907e-05
3.51546e-07
1.20789e-05
2.23716e-07
1.20959e-05
3.48767e-07
1.20924e-05
3.4493e-07
1.208e-05
2.74263e-07
1.209e-05
2.97743e-07
1.21024e-05
3.47403e-07
1.21024e-05
3.06899e-07
1.2105e-05
2.69255e-07
1.21179e-05
2.68554e-07
1.21297e-05
2.72963e-07
1.21339e-05
2.43893e-07
1.21365e-05
2.09491e-07
1.2142e-05
1.88316e-07
1.77759e-07
1.21495e-05
1.26551e-05
7.58512e-08
1.26801e-05
3.60497e-07
1.26525e-05
1.85563e-07
1.26536e-05
1.58869e-07
1.26857e-05
3.74924e-07
1.26725e-05
3.64737e-07
1.26572e-05
2.39055e-07
1.26712e-05
3.34773e-07
1.26718e-05
3.44302e-07
1.26606e-05
2.85506e-07
1.26676e-05
2.90725e-07
1.26808e-05
3.34241e-07
1.26833e-05
3.0435e-07
1.26853e-05
2.67254e-07
1.2696e-05
2.57841e-07
1.27081e-05
2.60926e-07
1.27139e-05
2.38056e-07
1.27167e-05
2.06646e-07
1.27214e-05
1.83639e-07
1.71229e-07
1.2728e-05
1.32566e-05
6.62105e-08
1.32833e-05
3.33755e-07
1.32605e-05
2.08337e-07
1.32558e-05
1.6359e-07
1.32876e-05
3.43184e-07
1.32814e-05
3.70944e-07
1.32646e-05
2.55783e-07
1.32747e-05
3.24704e-07
1.32783e-05
3.40691e-07
1.32692e-05
2.94658e-07
1.32737e-05
2.86151e-07
1.32867e-05
3.21253e-07
1.32915e-05
2.99561e-07
1.32937e-05
2.65038e-07
1.33025e-05
2.49091e-07
1.33141e-05
2.49299e-07
1.33212e-05
2.30965e-07
1.33247e-05
2.03184e-07
1.33288e-05
1.79445e-07
1.65563e-07
1.33345e-05
1.38874e-05
5.90145e-08
1.39148e-05
3.06334e-07
1.38974e-05
2.25678e-07
1.3888e-05
1.73006e-07
1.39173e-05
3.13888e-07
1.39179e-05
3.70328e-07
1.39018e-05
2.71956e-07
1.39077e-05
3.18814e-07
1.39131e-05
3.35241e-07
1.39065e-05
3.01213e-07
1.39095e-05
2.83152e-07
1.39217e-05
3.09095e-07
1.39284e-05
2.92889e-07
1.39312e-05
2.62193e-07
1.39385e-05
2.41791e-07
1.39493e-05
2.38514e-07
1.39572e-05
2.2304e-07
1.39615e-05
1.9896e-07
1.39655e-05
1.75435e-07
1.60561e-07
1.39705e-05
1.45489e-05
5.37298e-08
1.45754e-05
2.79842e-07
1.45632e-05
2.37959e-07
1.45514e-05
1.84752e-07
1.45769e-05
2.88397e-07
1.45833e-05
3.63893e-07
1.4569e-05
2.86248e-07
1.45717e-05
3.16133e-07
1.4578e-05
3.28925e-07
1.45742e-05
3.05063e-07
1.45763e-05
2.81035e-07
1.45872e-05
2.98184e-07
1.45953e-05
2.8486e-07
1.4599e-05
2.58443e-07
1.46054e-05
2.3542e-07
1.46151e-05
2.28767e-07
1.46235e-05
2.14659e-07
1.46285e-05
1.93971e-07
1.46326e-05
1.71334e-07
1.55977e-07
1.46372e-05
1.52426e-05
5.00085e-08
1.52625e-05
2.59942e-07
1.52575e-05
2.42955e-07
1.52481e-05
1.94193e-07
1.52691e-05
2.67367e-07
1.52773e-05
3.55641e-07
1.52664e-05
2.97194e-07
1.52677e-05
3.14849e-07
1.52745e-05
3.22077e-07
1.52734e-05
3.06226e-07
1.52752e-05
2.79158e-07
1.52851e-05
2.88376e-07
1.52938e-05
2.76087e-07
1.52987e-05
2.53613e-07
1.53045e-05
2.2961e-07
1.53132e-05
2.19994e-07
1.53216e-05
2.06279e-07
1.53273e-05
1.88315e-07
1.53316e-05
1.67052e-07
1.51594e-07
1.53359e-05
1.59707e-05
4.66611e-08
1.60022e-05
2.28407e-07
1.60068e-05
2.3839e-07
1.59888e-05
2.12155e-07
1.59939e-05
2.62308e-07
1.60014e-05
3.48104e-07
1.59959e-05
3.02751e-07
1.59975e-05
3.13217e-07
1.60046e-05
3.1495e-07
1.60055e-05
3.05305e-07
1.60074e-05
2.77276e-07
1.60161e-05
2.79666e-07
1.60253e-05
2.66958e-07
1.60311e-05
2.47792e-07
1.60368e-05
2.23918e-07
1.60448e-05
2.11998e-07
1.60529e-05
1.98124e-07
1.60591e-05
1.82125e-07
1.60637e-05
1.62435e-07
1.47216e-07
1.60681e-05
1.67321e-05
4.51283e-08
1.67426e-05
2.1792e-07
1.67456e-05
2.35414e-07
1.67378e-05
2.1996e-07
1.67485e-05
2.51589e-07
1.67611e-05
3.35472e-07
1.67598e-05
3.04078e-07
1.67621e-05
3.1095e-07
1.67697e-05
3.07288e-07
1.67725e-05
3.02504e-07
1.67751e-05
2.74764e-07
1.67829e-05
2.71856e-07
1.67922e-05
2.57676e-07
1.67988e-05
2.41179e-07
1.68047e-05
2.18015e-07
1.6812e-05
2.04645e-07
1.68198e-05
1.90371e-07
1.68262e-05
1.7574e-07
1.68311e-05
1.57445e-07
1.42797e-07
1.68356e-05
1.75317e-05
4.38143e-08
1.75514e-05
1.98231e-07
1.75514e-05
2.35347e-07
1.75394e-05
2.31954e-07
1.75457e-05
2.45342e-07
1.75585e-05
3.22649e-07
1.75606e-05
3.02017e-07
1.75636e-05
3.07938e-07
1.75714e-05
2.9945e-07
1.75758e-05
2.98106e-07
1.7579e-05
2.71617e-07
1.75859e-05
2.6488e-07
1.7595e-05
2.48618e-07
1.76024e-05
2.33772e-07
1.76086e-05
2.11781e-07
1.76156e-05
1.97649e-07
1.76231e-05
1.82914e-07
1.76295e-05
1.69327e-07
1.76347e-05
1.52233e-07
1.38072e-07
1.76394e-05
1.83687e-05
4.34237e-08
1.83778e-05
1.89136e-07
1.8384e-05
2.29151e-07
1.83783e-05
2.37648e-07
1.83835e-05
2.40226e-07
1.83952e-05
3.10865e-07
1.83989e-05
2.98306e-07
1.84028e-05
3.04089e-07
1.84109e-05
2.91306e-07
1.8417e-05
2.92036e-07
1.84212e-05
2.67441e-07
1.84279e-05
2.58168e-07
1.84364e-05
2.40128e-07
1.84444e-05
2.25761e-07
1.84512e-05
2.05026e-07
1.84579e-05
1.90869e-07
1.84652e-05
1.75688e-07
1.84716e-05
1.629e-07
1.84769e-05
1.46964e-07
1.33098e-07
1.84818e-05
1.92467e-05
4.3076e-08
1.92567e-05
1.79207e-07
1.92617e-05
2.24077e-07
1.92577e-05
2.41674e-07
1.9262e-05
2.35988e-07
1.9273e-05
2.9983e-07
1.92783e-05
2.93039e-07
1.92828e-05
2.99592e-07
1.92909e-05
2.83198e-07
1.92983e-05
2.84622e-07
1.93036e-05
2.62094e-07
1.931e-05
2.51741e-07
1.9318e-05
2.32133e-07
1.93261e-05
2.17698e-07
1.93334e-05
1.97745e-07
1.93402e-05
1.8409e-07
1.93471e-05
1.68718e-07