/*--------------------------------*- C++ -*----------------------------------*\
| =========                 |                                                 |
| \\      /  F ield         | OpenFOAM: The Open Source CFD Toolbox           |
|  \\    /   O peration     | Version:  2506                                  |
|   \\  /    A nd           | Website:  www.openfoam.com                      |
|    \\/     M anipulation  |                                                 |
\*---------------------------------------------------------------------------*/
FoamFile
{
    version     2.0;
    format      ascii;
    arch        "LSB;label=32;scalar=64";
    class       volVectorField;
    location    "10";
    object      U;
}
// * * * * * * * * * * * * * * * * * * * * * * * * * * * * * * * * * * * * * //

dimensions      [0 1 -1 0 0 0 0];

internalField   nonuniform List<vector> 
9600
(
(0.887639 0.0155424 0)
(1.15846 -0.00397055 0)
(0.893375 -0.00380503 0)
(1.04006 -0.00484693 0)
(0.911756 0.0280248 0)
(1.19055 -0.0159711 0)
(0.629593 0.00422004 0)
(1.25105 0.0146965 0)
(0.708664 -0.00601744 0)
(1.16403 0.0127203 0)
(0.864428 0.00388286 0)
(1.08378 0.0122224 0)
(0.871019 0.0124115 0)
(1.07221 0.00670258 0)
(0.863583 0.0260923 0)
(1.0784 0.00688284 0)
(0.826445 0.0282181 0)
(1.08562 0.0117819 0)
(0.795571 0.0185236 0)
(1.08276 0.0126075 0)
(0.891039 0.0152536 0)
(1.14741 -0.00380477 0)
(0.89727 -0.00300068 0)
(1.03416 -0.00485263 0)
(0.913571 0.0265215 0)
(1.18125 -0.0123899 0)
(0.636469 0.00350586 0)
(1.23983 0.0143873 0)
(0.728256 -0.00534051 0)
(1.1543 0.0111714 0)
(0.884542 0.00472281 0)
(1.07543 0.0127088 0)
(0.893548 0.0123874 0)
(1.0543 0.00717216 0)
(0.893196 0.0256815 0)
(1.04098 0.00805979 0)
(0.876874 0.0277454 0)
(1.01634 0.0123511 0)
(0.891083 0.0197609 0)
(0.964832 0.0109243 0)
(0.898243 0.0148829 0)
(1.13023 -0.00364694 0)
(0.90794 -0.00227131 0)
(1.02265 -0.0049294 0)
(0.916488 0.024962 0)
(1.16731 -0.009639 0)
(0.66035 0.00219747 0)
(1.21128 0.013759 0)
(0.773064 -0.00470498 0)
(1.12444 0.00916226 0)
(0.921184 0.00577922 0)
(1.05297 0.0127849 0)
(0.931419 0.0125647 0)
(1.02397 0.0074133 0)
(0.936505 0.0255983 0)
(1.00559 0.00893104 0)
(0.927645 0.027626 0)
(0.97897 0.0128198 0)
(0.942557 0.0200098 0)
(0.949243 0.0112441 0)
(0.908915 0.0146069 0)
(1.10899 -0.00355014 0)
(0.925421 -0.00159994 0)
(1.00786 -0.00488643 0)
(0.920627 0.0235789 0)
(1.14723 -0.00705972 0)
(0.7058 0.00131038 0)
(1.16378 0.0127703 0)
(0.837619 -0.00391867 0)
(1.07732 0.00737213 0)
(0.957871 0.00670479 0)
(1.02599 0.0126125 0)
(0.961148 0.0129719 0)
(0.996845 0.00733959 0)
(0.965369 0.0257837 0)
(0.988423 0.00932804 0)
(0.955262 0.0280455 0)
(0.971055 0.0127632 0)
(0.959494 0.0202245 0)
(0.95782 0.0120139 0)
(0.922156 0.0144319 0)
(1.08606 -0.00353842 0)
(0.946519 -0.000927178 0)
(0.993599 -0.00470597 0)
(0.926448 0.0222418 0)
(1.12217 -0.00498645 0)
(0.767824 0.000996596 0)
(1.10542 0.0114697 0)
(0.902364 -0.00298983 0)
(1.02854 0.00593878 0)
(0.98018 0.00723028 0)
(1.00599 0.0126095 0)
(0.974892 0.0134433 0)
(0.97937 0.00732533 0)
(0.973898 0.0257354 0)
(0.980096 0.00981916 0)
(0.963546 0.0281671 0)
(0.969066 0.0129943 0)
(0.96267 0.0204249 0)
(0.961793 0.0127093 0)
(0.936615 0.0143255 0)
(1.06435 -0.00361117 0)
(0.966852 -0.000274399 0)
(0.983632 -0.00440055 0)
(0.933963 0.0209791 0)
(1.09533 -0.00350231 0)
(0.833414 0.00120225 0)
(1.05102 0.0100352 0)
(0.950627 -0.00214574 0)
(0.993378 0.00503105 0)
(0.987482 0.00737049 0)
(0.995517 0.0127811 0)
(0.979488 0.0139449 0)
(0.971179 0.00751162 0)
(0.970382 0.0255396 0)
(0.97378 0.0103719 0)
(0.961718 0.0279837 0)
(0.966751 0.0135133 0)
(0.962369 0.0201963 0)
(0.963625 0.0133123 0)
(0.950821 0.014263 0)
(1.04628 -0.0037383 0)
(0.982974 0.000310038 0)
(0.979823 -0.00399499 0)
(0.942579 0.0198835 0)
(1.07074 -0.00262033 0)
(0.889766 0.0017571 0)
(1.01217 0.00873474 0)
(0.978475 -0.00152805 0)
(0.976439 0.00465472 0)
(0.987507 0.00725174 0)
(0.991433 0.0129381 0)
(0.982091 0.0144532 0)
(0.970361 0.00789292 0)
(0.96476 0.0253894 0)
(0.969579 0.0108586 0)
(0.958165 0.0276924 0)
(0.965806 0.0139779 0)
(0.963915 0.0196234 0)
(0.967218 0.0138573 0)
(0.963584 0.0142222 0)
(1.03298 -0.00388005 0)
(0.993577 0.000790483 0)
(0.981337 -0.00352956 0)
(0.951749 0.0189972 0)
(1.0512 -0.00223452 0)
(0.930509 0.00249665 0)
(0.991282 0.00775529 0)
(0.991239 -0.0011441 0)
(0.97291 0.00459947 0)
(0.986893 0.00700947 0)
(0.990468 0.0129967 0)
(0.984931 0.0148949 0)
(0.973963 0.00842404 0)
(0.962763 0.0253225 0)
(0.969155 0.011325 0)
(0.958075 0.0272741 0)
(0.968083 0.0143047 0)
(0.968925 0.0188666 0)
(0.973444 0.0143131 0)
(0.974217 0.0141789 0)
(1.02421 -0.00400043 0)
(0.999349 0.00115717 0)
(0.98559 -0.00305686 0)
(0.961352 0.0183157 0)
(1.03734 -0.0021608 0)
(0.956009 0.00327694 0)
(0.983935 0.00709956 0)
(0.996339 -0.000935438 0)
(0.975716 0.00466469 0)
(0.987741 0.0067703 0)
(0.990714 0.012978 0)
(0.987552 0.0152325 0)
(0.978817 0.00902942 0)
(0.965236 0.0253166 0)
(0.972545 0.0117982 0)
(0.96271 0.0267109 0)
(0.973697 0.0145599 0)
(0.976633 0.0179469 0)
(0.981374 0.0146668 0)
(0.982528 0.0141136 0)
(1.01888 -0.00407592 0)
(1.00194 0.0014194 0)
(0.990004 -0.00262689 0)
(0.971325 0.0178068 0)
(1.02808 -0.00222615 0)
(0.970357 0.00400012 0)
(0.984157 0.00666118 0)
(0.998893 -0.000838406 0)
(0.980144 0.00476123 0)
(0.989484 0.00659578 0)
(0.991233 0.012928 0)
(0.989424 0.015482 0)
(0.983028 0.00962131 0)
(0.970496 0.0253028 0)
(0.978303 0.0122511 0)
(0.97068 0.0260149 0)
(0.981453 0.0147888 0)
(0.985511 0.0169389 0)
(0.989681 0.0149554 0)
(0.988662 0.0140164 0)
(1.01583 -0.00409833 0)
(1.00291 0.00160089 0)
(0.993159 -0.0022745 0)
(0.98117 0.0174252 0)
(1.02197 -0.00230952 0)
(0.978214 0.004617 0)
(0.987551 0.00633755 0)
(1.00097 -0.000790889 0)
(0.984267 0.00487681 0)
(0.991361 0.00649217 0)
(0.991769 0.0128794 0)
(0.990701 0.0156677 0)
(0.986249 0.0101257 0)
(0.97677 0.0251924 0)
(0.984878 0.0126586 0)
(0.979908 0.0251853 0)
(0.989828 0.015033 0)
(0.994198 0.0159354 0)
(0.99732 0.0152063 0)
(0.992932 0.0138857 0)
(1.01415 -0.00407058 0)
(1.00322 0.00172947 0)
(0.994847 -0.00201285 0)
(0.989966 0.0171274 0)
(1.01793 -0.00234775 0)
(0.982965 0.00511219 0)
(0.991669 0.00607508 0)
(1.00284 -0.000755455 0)
(0.987645 0.00501386 0)
(0.993147 0.00645127 0)
(0.992461 0.0128416 0)
(0.991882 0.015798 0)
(0.988922 0.0105106 0)
(0.983067 0.0249368 0)
(0.991321 0.0130053 0)
(0.988817 0.0242405 0)
(0.997622 0.015316 0)
(1.00178 0.0150079 0)
(1.00366 0.0154248 0)
(0.995729 0.0137242 0)
(1.01325 -0.00400042 0)
(1.00331 0.00182806 0)
(0.995504 -0.00183444 0)
(0.996855 0.0168768 0)
(1.01538 -0.002324 0)
(0.986323 0.00549598 0)
(0.99534 0.00585541 0)
(1.00435 -0.000725466 0)
(0.990267 0.00516848 0)
(0.9948 0.00645934 0)
(0.993446 0.0128064 0)
(0.993303 0.0158785 0)
(0.991451 0.0107831 0)
(0.98892 0.0245227 0)
(0.997137 0.0132967 0)
(0.996509 0.0232241 0)
(1.00411 0.0156296 0)
(1.00778 0.0142209 0)
(1.00844 0.0155928 0)
(0.997451 0.0135364 0)
(1.01272 -0.00389624 0)
(1.00336 0.00191016 0)
(0.995632 -0.00171804 0)
(1.00154 0.0166435 0)
(1.01391 -0.00224587 0)
(0.988871 0.00578925 0)
(0.998122 0.00567387 0)
(1.00547 -0.000695069 0)
(0.992158 0.00534033 0)
(0.996193 0.00649398 0)
(0.994637 0.0127652 0)
(0.994939 0.0159098 0)
(0.993882 0.0109653 0)
(0.993985 0.0239658 0)
(1.00197 0.0135528 0)
(1.00254 0.0221769 0)
(1.00892 0.0159689 0)
(1.01209 0.01361 0)
(1.01168 0.0156909 0)
(0.998451 0.0133273 0)
(1.01228 -0.00376554 0)
(1.00356 0.00198045 0)
(0.995529 -0.00163759 0)
(1.00437 0.0164067 0)
(1.01302 -0.00212921 0)
(0.990802 0.0060146 0)
(1.00006 0.00552958 0)
(1.00629 -0.0006669 0)
(0.993362 0.00552728 0)
(0.997194 0.00653417 0)
(0.995826 0.0127089 0)
(0.996564 0.015898 0)
(0.996034 0.0110705 0)
(0.997969 0.0233042 0)
(1.00558 0.0137948 0)
(1.00677 0.0211509 0)
(1.01201 0.0163056 0)
(1.01483 0.0131833 0)
(1.01364 0.0157161 0)
(0.998976 0.013102 0)
(1.01177 -0.00361526 0)
(1.00402 0.00203875 0)
(0.995298 -0.00156994 0)
(1.00603 0.0161539 0)
(1.01227 -0.00198525 0)
(0.992318 0.00618413 0)
(1.00148 0.00542323 0)
(1.00687 -0.00064651 0)
(0.993978 0.00573227 0)
(0.997822 0.00657145 0)
(0.996883 0.0126241 0)
(0.998007 0.015855 0)
(0.997778 0.0111274 0)
(1.00078 0.0225751 0)
(1.00789 0.0140304 0)
(1.00936 0.0201873 0)
(1.0136 0.0166165 0)
(1.01627 0.012926 0)
(1.01462 0.0156623 0)
(0.999164 0.0128656 0)
(1.01117 -0.00345257 0)
(1.00476 0.00208495 0)
(0.994982 -0.00149948 0)
(1.00703 0.0158822 0)
(1.01142 -0.00181861 0)
(0.993634 0.00629599 0)
(1.00268 0.00535846 0)
(1.0072 -0.000626582 0)
(0.994139 0.00595716 0)
(0.998214 0.00660056 0)
(0.997799 0.0125048 0)
(0.999223 0.0157841 0)
(0.999137 0.0111727 0)
(1.00256 0.0218165 0)
(1.00911 0.014253 0)
(1.01066 0.0192986 0)
(1.01404 0.0168882 0)
(1.01674 0.0128056 0)
(1.01492 0.0155239 0)
(0.999096 0.012622 0)
(1.01056 -0.00328386 0)
(1.00564 0.00211911 0)
(0.994651 -0.00141432 0)
(1.00753 0.0155924 0)
(1.01054 -0.00163244 0)
(0.994833 0.00634643 0)
(1.0037 0.00534027 0)
(1.00728 -0.000595665 0)
(0.993991 0.00619865 0)
(0.998476 0.00660897 0)
(0.998592 0.0123532 0)
(1.0002 0.0156937 0)
(1.00018 0.0112125 0)
(1.0036 0.021069 0)
(1.00953 0.0144564 0)
(1.01105 0.0184855 0)
(1.01371 0.0171005 0)
(1.01654 0.0127788 0)
(1.01477 0.0152968 0)
(0.99886 0.0123737 0)
(1.01004 -0.00311334 0)
(1.00648 0.00214088 0)
(0.994391 -0.0013036 0)
(1.00754 0.0152828 0)
(1.0098 -0.00142922 0)
(0.995866 0.00633406 0)
(1.00439 0.00537482 0)
(1.0072 -0.000548932 0)
(0.993691 0.00644777 0)
(0.998625 0.00659668 0)
(0.99923 0.0121631 0)
(1.00089 0.0155979 0)
(1.00094 0.0112497 0)
(1.00412 0.0203508 0)
(1.00943 0.0146464 0)
(1.01089 0.0177442 0)
(1.01295 0.0172459 0)
(1.01592 0.0128241 0)
(1.01434 0.0149885 0)
(0.998562 0.0121207 0)
(1.00963 -0.00294145 0)
(1.00714 0.00214974 0)
(0.994255 -0.00115955 0)
(1.00716 0.0149505 0)
(1.00929 -0.00121341 0)
(0.996662 0.00626885 0)
(1.00466 0.00546134 0)
(1.00704 -0.00049118 0)
(0.993401 0.00669369 0)
(0.99865 0.00657812 0)
(0.99968 0.0119278 0)
(1.00125 0.0155106 0)
(1.00142 0.0112771 0)
(1.00429 0.0196731 0)
(1.00906 0.0148408 0)
(1.01045 0.0170706 0)
(1.01204 0.0173273 0)
(1.01508 0.0129316 0)
(1.01383 0.0146102 0)
(0.998294 0.0118617 0)
(1.00931 -0.00276511 0)
(1.00759 0.0021432 0)
(0.99425 -0.000976225 0)
(1.00659 0.0145892 0)
(1.00898 -0.000986953 0)
(0.997213 0.00616542 0)
(1.00458 0.00559347 0)
(1.00688 -0.000436942 0)
(0.993241 0.00693567 0)
(0.998586 0.00656411 0)
(0.999975 0.0116512 0)
(1.00133 0.0154276 0)
(1.00171 0.0113018 0)
(1.00424 0.0190348 0)
(1.00859 0.0150474 0)
(1.00994 0.0164508 0)
(1.01117 0.0173495 0)
(1.01421 0.0131071 0)
(1.01339 0.0141852 0)
(0.998102 0.0115944 0)
(1.00905 -0.00258141 0)
(1.00787 0.0021205 0)
(0.994353 -0.000755629 0)
(1.00603 0.0141984 0)
(1.0088 -0.000748114 0)
(0.997564 0.00603147 0)
(1.00431 0.00576273 0)
(1.00673 -0.000387126 0)
(0.993258 0.00717417 0)
(0.998496 0.00656854 0)
(1.00021 0.0113333 0)
(1.00121 0.0153505 0)
(1.00188 0.0113281 0)
(1.00411 0.0184212 0)
(1.00817 0.0152595 0)
(1.00952 0.0158743 0)
(1.0105 0.0173023 0)
(1.01343 0.0133493 0)
(1.0131 0.0137371 0)
(0.997988 0.0113175 0)
(1.00884 -0.00238745 0)
(1.00802 0.00208027 0)
(0.994541 -0.000500837 0)
(1.00557 0.0137784 0)
(1.00868 -0.000492073 0)
(0.997771 0.00587444 0)
(1.00403 0.00596127 0)
(1.00659 -0.000346018 0)
(0.993435 0.00739794 0)
(0.998425 0.00661629 0)
(1.00046 0.0109678 0)
(1.00101 0.0152866 0)
(1.00203 0.0113506 0)
(1.004 0.0178172 0)
(1.00785 0.0154703 0)
(1.00923 0.0153398 0)
(1.01007 0.0171583 0)
(1.01276 0.0136431 0)
(1.01297 0.0132973 0)
(0.99793 0.011029 0)
(1.00865 -0.00217838 0)
(1.00807 0.00201978 0)
(0.994803 -0.000213913 0)
(1.00522 0.0133287 0)
(1.00861 -0.000212174 0)
(0.997876 0.00569438 0)
(1.00381 0.00618603 0)
(1.00646 -0.000315768 0)
(0.993728 0.00759244 0)
(0.998378 0.00671217 0)
(1.0008 0.0105661 0)
(1.0008 0.0152221 0)
(1.00217 0.0113859 0)
(1.00397 0.0171958 0)
(1.00763 0.0156749 0)
(1.00905 0.014869 0)
(1.00986 0.0168975 0)
(1.01221 0.013968 0)
(1.01294 0.0129247 0)
(0.997907 0.0107272 0)
(1.00849 -0.00195268 0)
(1.00805 0.00193887 0)
(0.995131 0.000101155 0)
(1.00491 0.0128517 0)
(1.00857 8.63915e-05 0)
(0.997914 0.00549326 0)
(1.00367 0.00642491 0)
(1.00632 -0.000279045 0)
(0.994091 0.00774767 0)
(0.998346 0.00686431 0)
(1.0012 0.0101373 0)
(1.00061 0.0151432 0)
(1.00229 0.0114458 0)
(1.004 0.0165515 0)
(1.00748 0.0158657 0)
(1.00895 0.0144879 0)
(1.00981 0.0165161 0)
(1.01176 0.0142942 0)
(1.01296 0.0126839 0)
(0.997908 0.0104118 0)
(1.00833 -0.00170928 0)
(1.00795 0.00183534 0)
(0.995514 0.00044159 0)
(1.00461 0.0123537 0)
(1.00856 0.000406902 0)
(0.997918 0.00528305 0)
(1.00357 0.00667061 0)
(1.0062 -0.000233043 0)
(0.994489 0.00785956 0)
(0.998315 0.00707239 0)
(1.00164 0.00969292 0)
(1.00046 0.0150456 0)
(1.00238 0.0115369 0)
(1.00409 0.0158814 0)
(1.00736 0.0160156 0)
(1.00887 0.014216 0)
(1.00984 0.0160309 0)
(1.01139 0.0145707 0)
(1.01293 0.0126049 0)
(0.997932 0.0100825 0)
(1.00818 -0.00144617 0)
(1.00781 0.00171085 0)
(0.995934 0.000802787 0)
(1.00431 0.0118379 0)
(1.00855 0.000752264 0)
(0.997925 0.00506367 0)
(1.0035 0.00691667 0)
(1.00611 -0.000170377 0)
(0.994896 0.00791819 0)
(0.998282 0.00732915 0)
(1.00209 0.00925189 0)
(1.00036 0.0149105 0)
(1.00241 0.0116726 0)
(1.00422 0.0151955 0)
(1.00727 0.0161059 0)
(1.00878 0.0140607 0)
(1.00992 0.015466 0)
(1.01109 0.0147296 0)
(1.01283 0.0126993 0)
(0.997979 0.00973702 0)
(1.00802 -0.00116021 0)
(1.00763 0.00156327 0)
(0.996366 0.001186 0)
(1.00401 0.0113048 0)
(1.00852 0.00110836 0)
(0.99797 0.00484046 0)
(1.00343 0.0071513 0)
(1.00607 -7.42647e-05 0)
(0.995302 0.00791405 0)
(0.998244 0.00762887 0)
(1.00253 0.00881946 0)
(1.00031 0.0147163 0)
(1.00238 0.0118637 0)
(1.00437 0.0145053 0)
(1.00718 0.0161088 0)
(1.00866 0.0140231 0)
(1.01 0.0148857 0)
(1.01087 0.0147318 0)
(1.01266 0.0129185 0)
(0.99805 0.00937665 0)
(1.00784 -0.000853461 0)
(1.00744 0.00139233 0)
(0.996782 0.00158496 0)
(1.00375 0.0107657 0)
(1.00845 0.00146249 0)
(0.998072 0.00463129 0)
(1.00333 0.00735795 0)
(1.00608 5.37492e-05 0)
(0.995702 0.00784533 0)
(0.998204 0.00795522 0)
(1.00294 0.00841575 0)
(1.00034 0.0144604 0)
(1.00229 0.012103 0)
(1.00453 0.0138258 0)
(1.00712 0.0159974 0)
(1.00851 0.0140829 0)
(1.01006 0.0143404 0)
(1.01073 0.0145652 0)
(1.01242 0.0131777 0)
(0.998141 0.00900196 0)
(1.00764 -0.000525176 0)
(1.00726 0.00119993 0)
(0.997161 0.00199505 0)
(1.00353 0.0102237 0)
(1.00834 0.00181493 0)
(0.998235 0.00444065 0)
(1.00322 0.00752315 0)
(1.00612 0.000228122 0)
(0.996102 0.00772847 0)
(0.99816 0.00829783 0)
(1.00333 0.00806544 0)
(1.00044 0.0141327 0)
(1.00216 0.0123751 0)
(1.0047 0.0132032 0)
(1.00711 0.0157646 0)
(1.00832 0.0142096 0)
(1.01009 0.0138662 0)
(1.01067 0.0142357 0)
(1.01216 0.0133872 0)
(0.998245 0.00861097 0)
(1.00742 -0.000173938 0)
(1.0071 0.000989137 0)
(0.997493 0.00241137 0)
(1.00336 0.00968775 0)
(1.00819 0.00214994 0)
(0.998446 0.00428415 0)
(1.00308 0.00764293 0)
(1.00617 0.000459574 0)
(0.996507 0.00757883 0)
(0.998114 0.00864174 0)
(1.00368 0.00778007 0)
(1.00061 0.0137405 0)
(1.00201 0.0126636 0)
(1.00485 0.0126586 0)
(1.00715 0.0154045 0)
(1.00813 0.0143647 0)
(1.01006 0.0135106 0)
(1.01067 0.013783 0)
(1.01194 0.0134609 0)
(0.998357 0.00820688 0)
(1.00718 0.000194427 0)
(1.00697 0.000767695 0)
(0.997777 0.00281765 0)
(1.00324 0.00917658 0)
(1.00801 0.00245614 0)
(0.998686 0.00417603 0)
(1.00293 0.00770646 0)
(1.00623 0.000727351 0)
(0.996925 0.00740099 0)
(0.998068 0.00897174 0)
(1.004 0.00756159 0)
(1.00087 0.0132874 0)
(1.00185 0.0129526 0)
(1.00498 0.012216 0)
(1.00727 0.0149275 0)
(1.00794 0.0144941 0)
(1.00997 0.013289 0)
(1.01072 0.0132831 0)
(1.0118 0.0133567 0)
(0.998471 0.00778851 0)
(1.00691 0.000582908 0)
(1.00687 0.000532436 0)
(0.998023 0.00322056 0)
(1.00314 0.00868491 0)
(1.00781 0.00272329 0)
(0.998935 0.00411508 0)
(1.00277 0.00772484 0)
(1.00627 0.00102977 0)
(0.997359 0.00720374 0)
(0.998028 0.00926497 0)
(1.00428 0.00741344 0)
(1.00121 0.012786 0)
(1.00172 0.0132183 0)
(1.00506 0.0118836 0)
(1.00745 0.014351 0)
(1.00778 0.0145621 0)
(1.00981 0.0132008 0)
(1.01076 0.0128134 0)
(1.01175 0.0130804 0)
(0.998585 0.00735836 0)
(1.00662 0.000983709 0)
(1.0068 0.000297052 0)
(0.998241 0.00360142 0)
(1.00306 0.00823043 0)
(1.00761 0.00293241 0)
(0.99918 0.00411779 0)
(1.00261 0.00771124 0)
(1.0063 0.00135541 0)
(0.997811 0.00699435 0)
(0.997997 0.0095284 0)
(1.00451 0.00733172 0)
(1.00162 0.0122504 0)
(1.00161 0.0134323 0)
(1.0051 0.0116721 0)
(1.00769 0.0137209 0)
(1.00769 0.0145363 0)
(1.0096 0.013207 0)
(1.01076 0.0124209 0)
(1.01178 0.0126756 0)
(0.998696 0.00691884 0)
(1.00632 0.00139204 0)
(1.00675 6.86015e-05 0)
(0.998445 0.00395138 0)
(1.00297 0.00783016 0)
(1.00742 0.00308476 0)
(0.999415 0.00416729 0)
(1.00246 0.00767165 0)
(1.0063 0.00168641 0)
(0.998283 0.00679398 0)
(0.997982 0.00975042 0)
(1.00469 0.00731033 0)
(1.00209 0.0116768 0)
(1.00154 0.0135888 0)
(1.00508 0.0115826 0)
(1.00796 0.0130649 0)
(1.00767 0.0143959 0)
(1.00935 0.01327 0)
(1.01071 0.0121357 0)
(1.01186 0.0122261 0)
(0.998805 0.00646894 0)
(1.006 0.00180828 0)
(1.00671 -0.000155629 0)
(0.998642 0.00426534 0)
(1.00287 0.007488 0)
(1.00723 0.00317743 0)
(0.999641 0.00424543 0)
(1.0023 0.00762314 0)
(1.00629 0.00201902 0)
(0.998773 0.0066007 0)
(0.997984 0.00992261 0)
(1.00482 0.00735039 0)
(1.00261 0.0110931 0)
(1.00153 0.013663 0)
(1.00499 0.0115933 0)
(1.00823 0.0124205 0)
(1.00773 0.0141387 0)
(1.00908 0.0133591 0)
(1.01057 0.0119464 0)
(1.01194 0.0118085 0)
(0.998913 0.00601507 0)
(1.00566 0.0022192 0)
(1.00667 -0.000365753 0)
(0.998842 0.00452278 0)
(1.00275 0.00722209 0)
(1.00705 0.00320198 0)
(0.999862 0.0043575 0)
(1.00215 0.0075797 0)
(1.00625 0.00232387 0)
(0.99928 0.00641904 0)
(0.99801 0.0100615 0)
(1.0049 0.00745086 0)
(1.00316 0.010509 0)
(1.00159 0.0136398 0)
(1.00485 0.0117003 0)
(1.0085 0.0118248 0)
(1.00789 0.0137492 0)
(1.00882 0.0134506 0)
(1.01037 0.011843 0)
(1.01199 0.0114485 0)
(0.999018 0.00555702 0)
(1.0053 0.00262706 0)
(1.00663 -0.000554866 0)
(0.999047 0.00471674 0)
(1.00261 0.0070345 0)
(1.00688 0.00318271 0)
(1.00008 0.00446536 0)
(1.002 0.00755264 0)
(1.00621 0.00260541 0)
(0.999805 0.00624184 0)
(0.998063 0.0101542 0)
(1.00491 0.00761158 0)
(1.00372 0.00992756 0)
(1.00172 0.0135109 0)
(1.00464 0.011893 0)
(1.00871 0.0113227 0)
(1.00814 0.0132201 0)
(1.0086 0.0135067 0)
(1.01008 0.011837 0)
(1.01198 0.0111414 0)
(0.999122 0.00509797 0)
(1.00494 0.00301968 0)
(1.00657 -0.000703012 0)
(0.999261 0.00482939 0)
(1.00245 0.00693049 0)
(1.00672 0.00312594 0)
(1.00031 0.0045585 0)
(1.00185 0.00755927 0)
(1.00614 0.00287352 0)
(1.00034 0.00605208 0)
(0.998154 0.0102112 0)
(1.00487 0.00781688 0)
(1.00429 0.00937829 0)
(1.00195 0.013264 0)
(1.0044 0.0121322 0)
(1.00885 0.0109642 0)
(1.00847 0.0125747 0)
(1.00846 0.0134625 0)
(1.00974 0.011938 0)
(1.01189 0.010895 0)
(0.999223 0.00464406 0)
(1.00456 0.00339008 0)
(1.0065 -0.000809787 0)
(0.999487 0.0048578 0)
(1.00227 0.00689902 0)
(1.00655 0.00305325 0)
(1.00056 0.00462467 0)
(1.00171 0.00760085 0)
(1.00605 0.00313458 0)
(1.0009 0.00586098 0)
(0.998288 0.0102237 0)
(1.00477 0.00805781 0)
(1.00483 0.00888811 0)
(1.00228 0.0128979 0)
(1.00414 0.0123594 0)
(1.00887 0.0107674 0)
(1.00885 0.0118749 0)
(1.00844 0.0132536 0)
(1.00936 0.0120999 0)
(1.01171 0.0107529 0)
(0.999322 0.0041956 0)
(1.00418 0.00373943 0)
(1.0064 -0.000863406 0)
(0.999726 0.00479805 0)
(1.00208 0.00692692 0)
(1.00637 0.00299049 0)
(1.00081 0.00463163 0)
(1.00157 0.00767546 0)
(1.00593 0.00341514 0)
(1.00146 0.00565406 0)
(0.998473 0.0101806 0)
(1.00463 0.00833715 0)
(1.00533 0.00845676 0)
(1.0027 0.0124309 0)
(1.00392 0.0125413 0)
(1.00877 0.0107216 0)
(1.00923 0.0112036 0)
(1.00855 0.0128572 0)
(1.00899 0.012227 0)
(1.01141 0.0107582 0)
(0.999418 0.0037571 0)
(1.00379 0.00405273 0)
(1.00628 -0.000851488 0)
(0.999979 0.00465184 0)
(1.00187 0.00699489 0)
(1.00618 0.00294992 0)
(1.00109 0.00457643 0)
(1.00145 0.007773 0)
(1.00578 0.00371877 0)
(1.00202 0.00542432 0)
(0.998719 0.0100843 0)
(1.00444 0.00864355 0)
(1.00577 0.00811167 0)
(1.00322 0.0118861 0)
(1.00375 0.0126359 0)
(1.00856 0.010792 0)
(1.00956 0.0106344 0)
(1.00879 0.0123179 0)
(1.0087 0.0122403 0)
(1.01101 0.0108828 0)
(0.999511 0.00333464 0)
(1.0034 0.00432475 0)
(1.00613 -0.000777566 0)
(1.00025 0.00442827 0)
(1.00167 0.00707665 0)
(1.00597 0.00295732 0)
(1.00139 0.00444952 0)
(1.00135 0.00786674 0)
(1.00559 0.004054 0)
(1.00257 0.00519531 0)
(0.999035 0.0099133 0)
(1.00423 0.00896862 0)
(1.00613 0.00787487 0)
(1.0038 0.0112662 0)
(1.00368 0.0126153 0)
(1.00826 0.0109505 0)
(1.0098 0.0102076 0)
(1.00913 0.0116886 0)
(1.00854 0.0120905 0)
(1.01057 0.011021 0)
(0.999601 0.00293073 0)
(1.00301 0.00454667 0)
(1.00594 -0.000632361 0)
(1.00052 0.00413992 0)
(1.00146 0.00715255 0)
(1.00573 0.00303034 0)
(1.00171 0.00425042 0)
(1.00128 0.00793397 0)
(1.00536 0.00444245 0)
(1.00309 0.00499336 0)
(0.999425 0.0096525 0)
(1.004 0.00928465 0)
(1.00639 0.00776383 0)
(1.00443 0.0106108 0)
(1.00371 0.0124614 0)
(1.0079 0.0111391 0)
(1.00991 0.00993122 0)
(1.00951 0.0110369 0)
(1.00852 0.0117952 0)
(1.01014 0.0110892 0)
(0.999685 0.00254969 0)
(1.00262 0.00471744 0)
(1.00571 -0.000426289 0)
(1.00081 0.00380517 0)
(1.00127 0.00720334 0)
(1.00545 0.00318686 0)
(1.00203 0.00400401 0)
(1.00126 0.00793997 0)
(1.00509 0.00488986 0)
(1.00356 0.00484954 0)
(0.999888 0.00931085 0)
(1.0038 0.00955217 0)
(1.00654 0.00778266 0)
(1.00507 0.00997268 0)
(1.00387 0.0121531 0)
(1.00753 0.0112909 0)
(1.00988 0.00980187 0)
(1.00988 0.0104293 0)
(1.00864 0.0113813 0)
(1.00979 0.0110519 0)
(0.999766 0.00219726 0)
(1.00225 0.00482239 0)
(1.00544 -0.000150715 0)
(1.0011 0.00343948 0)
(1.00111 0.00719897 0)
(1.00513 0.00343355 0)
(1.00235 0.00375315 0)
(1.0013 0.00786592 0)
(1.0048 0.0053652 0)
(1.00398 0.00480202 0)
(1.00041 0.00891371 0)
(1.00363 0.00973536 0)
(1.00658 0.00790184 0)
(1.00567 0.00940175 0)
(1.00414 0.0116995 0)
(1.00718 0.0113517 0)
(1.00972 0.00979145 0)
(1.01019 0.00992135 0)
(1.00886 0.0108756 0)
(1.00955 0.0109105 0)
(0.999841 0.00187558 0)
(1.0019 0.0048626 0)
(1.00513 0.000172728 0)
(1.00138 0.00306971 0)
(1.00098 0.00712109 0)
(1.00477 0.00377274 0)
(1.00265 0.00353582 0)
(1.00141 0.0076944 0)
(1.0045 0.00582206 0)
(1.00431 0.00486056 0)
(1.00098 0.00847722 0)
(1.00352 0.00980649 0)
(1.00653 0.00808338 0)
(1.00621 0.00894221 0)
(1.00452 0.0111474 0)
(1.00691 0.0112908 0)
(1.00945 0.00984257 0)
(1.0104 0.00955104 0)
(1.00915 0.0103278 0)
(1.00942 0.0106679 0)
(0.99991 0.00158899 0)
(1.00156 0.00483355 0)
(1.00479 0.000536235 0)
(1.00165 0.0027282 0)
(1.00089 0.00695513 0)
(1.00439 0.00417242 0)
(1.00291 0.00339152 0)
(1.00157 0.0074267 0)
(1.00421 0.00621812 0)
(1.00455 0.00501975 0)
(1.00156 0.00804202 0)
(1.00349 0.00975441 0)
(1.0064 0.00827519 0)
(1.00664 0.0086009 0)
(1.00496 0.0105503 0)
(1.00674 0.0111046 0)
(1.00914 0.00989036 0)
(1.01047 0.00931706 0)
(1.00946 0.00980619 0)
(1.00942 0.0103234 0)
(0.999973 0.00133986 0)
(1.00126 0.00472818 0)
(1.00441 0.000937372 0)
(1.0019 0.00243401 0)
(1.00085 0.00668954 0)
(1.00399 0.00459246 0)
(1.00311 0.00336205 0)
(1.00179 0.00709433 0)
(1.00395 0.00651996 0)
(1.00471 0.00525456 0)
(1.00214 0.00764948 0)
(1.00354 0.0095906 0)
(1.00624 0.00843899 0)
(1.00697 0.00837072 0)
(1.00543 0.00995922 0)
(1.00668 0.0108043 0)
(1.00881 0.00988892 0)
(1.01043 0.00918282 0)
(1.00973 0.00937066 0)
(1.00952 0.00990163 0)
(1.00003 0.00112924 0)
(1.00099 0.004558 0)
(1.00402 0.00134067 0)
(1.00211 0.00221208 0)
(1.00088 0.00633605 0)
(1.0036 0.00498425 0)
(1.00325 0.00345777 0)
(1.00204 0.00674745 0)
(1.00375 0.00670922 0)
(1.00479 0.00552421 0)
(1.00268 0.0073162 0)
(1.00365 0.0093381 0)
(1.00607 0.008549 0)
(1.00717 0.00823693 0)
(1.00589 0.00941869 0)
(1.00672 0.0104154 0)
(1.00852 0.00981619 0)
(1.0103 0.00909447 0)
(1.00992 0.00904075 0)
(1.00968 0.00945874 0)
(1.00008 0.000953544 0)
(1.00075 0.00433365 0)
(1.00361 0.00173097 0)
(1.00228 0.00207676 0)
(1.00095 0.00591309 0)
(1.00324 0.00531204 0)
(1.00332 0.00365611 0)
(1.0023 0.00643252 0)
(1.0036 0.00679922 0)
(1.00482 0.00579644 0)
(1.00316 0.007054 0)
(1.00384 0.00902904 0)
(1.00592 0.00858614 0)
(1.00728 0.00816544 0)
(1.0063 0.00895585 0)
(1.00684 0.00996874 0)
(1.00829 0.00966491 0)
(1.01011 0.00900808 0)
(1.01001 0.00879941 0)
(1.00985 0.00906089 0)
(1.00012 0.00081557 0)
(1.00055 0.00406382 0)
(1.0032 0.00208711 0)
(1.00239 0.00204055 0)
(1.00107 0.00545708 0)
(1.00292 0.00555137 0)
(1.00334 0.00390425 0)
(1.00256 0.0061563 0)
(1.00352 0.00680226 0)
(1.0048 0.00604451 0)
(1.00359 0.00686777 0)
(1.00406 0.0086982 0)
(1.0058 0.00855342 0)
(1.00732 0.0081247 0)
(1.00665 0.0085879 0)
(1.00702 0.00951183 0)
(1.00813 0.00944215 0)
(1.0099 0.00889887 0)
(1.01003 0.00860538 0)
(1.00999 0.00873446 0)
(1.00016 0.000708077 0)
(1.0004 0.00377281 0)
(1.00281 0.00237674 0)
(1.00246 0.00208838 0)
(1.00122 0.00500939 0)
(1.00266 0.00569752 0)
(1.0033 0.00419672 0)
(1.00279 0.00597023 0)
(1.00349 0.00674902 0)
(1.00477 0.00624351 0)
(1.00394 0.00671772 0)
(1.00431 0.00833663 0)
(1.00573 0.00842734 0)
(1.0073 0.00806823 0)
(1.00692 0.00828269 0)
(1.00722 0.009068 0)
(1.00804 0.0091505 0)
(1.0097 0.00874477 0)
(1.01 0.00841086 0)
(1.01008 0.00845315 0)
(1.00019 0.000628603 0)
(1.00027 0.00347825 0)
(1.00244 0.00261487 0)
(1.00247 0.00217858 0)
(1.00139 0.00456198 0)
(1.00247 0.00569133 0)
(1.00324 0.00446556 0)
(1.003 0.00587331 0)
(1.00349 0.00669522 0)
(1.00471 0.00644838 0)
(1.00423 0.00666578 0)
(1.00457 0.0080371 0)
(1.00571 0.008281 0)
(1.00725 0.00803044 0)
(1.00713 0.00806192 0)
(1.00743 0.00868107 0)
(1.00801 0.00884051 0)
(1.00951 0.00856669 0)
(1.00993 0.00822059 0)
(1.01012 0.00820277 0)
(1.00021 0.000565859 0)
(1.00019 0.00319235 0)
(1.0021 0.0027908 0)
(1.00243 0.002339 0)
(1.00156 0.00420264 0)
(1.00234 0.00560619 0)
(1.00318 0.00467856 0)
(1.00318 0.00576734 0)
(1.00355 0.00654764 0)
(1.00467 0.00651778 0)
(1.00446 0.00657196 0)
(1.00483 0.00769881 0)
(1.00574 0.00803659 0)
(1.0072 0.00792292 0)
(1.00727 0.00786164 0)
(1.00761 0.00832316 0)
(1.00802 0.00850891 0)
(1.00936 0.00835621 0)
(1.00984 0.00802831 0)
(1.01012 0.0079648 0)
(1.00022 0.0005133 0)
(1.00013 0.00292883 0)
(1.00181 0.00289974 0)
(1.00236 0.00250802 0)
(1.00173 0.00390881 0)
(1.00227 0.00547861 0)
(1.0031 0.0048718 0)
(1.00331 0.00575711 0)
(1.00361 0.00647093 0)
(1.00463 0.00661769 0)
(1.00463 0.00655762 0)
(1.00506 0.00743931 0)
(1.00581 0.00778937 0)
(1.00717 0.00778778 0)
(1.00738 0.00768717 0)
(1.00778 0.0080144 0)
(1.00807 0.00817195 0)
(1.00924 0.00810869 0)
(1.00974 0.00781989 0)
(1.0101 0.00772326 0)
(1.00024 0.000493015 0)
(1.0001 0.00264891 0)
(1.00155 0.00286463 0)
(1.00225 0.00263841 0)
(1.00187 0.00371072 0)
(1.00226 0.00535677 0)
(1.00306 0.00499281 0)
(1.00343 0.00572627 0)
(1.0037 0.00633332 0)
(1.0046 0.00662954 0)
(1.00474 0.00651862 0)
(1.00525 0.00719583 0)
(1.00589 0.00751431 0)
(1.00714 0.00760573 0)
(1.00743 0.00750106 0)
(1.00788 0.00774754 0)
(1.00812 0.0078639 0)
(1.00915 0.00784884 0)
(1.00963 0.00761237 0)
(1.01004 0.00750314 0)
(1.00024 0.000464197 0)
(1.00007 0.00243695 0)
(1.00135 0.00279763 0)
(1.00217 0.00278144 0)
(1.00202 0.00360044 0)
(1.00228 0.00523747 0)
(1.00301 0.00506298 0)
(1.00351 0.00568495 0)
(1.00379 0.00618351 0)
(1.00459 0.00659815 0)
(1.00483 0.0064959 0)
(1.00543 0.00700486 0)
(1.00602 0.00725679 0)
(1.00716 0.00740873 0)
(1.00751 0.00731309 0)
(1.008 0.00750679 0)
(1.0082 0.00759919 0)
(1.00911 0.00760256 0)
(1.00955 0.00740351 0)
(1.00999 0.00729842 0)
(1.00025 0.000447802 0)
(1.00007 0.00226083 0)
(1.00117 0.0027866 0)
(1.00206 0.00293941 0)
(1.00213 0.00352639 0)
(1.00233 0.00508493 0)
(1.00299 0.00509464 0)
(1.00358 0.00564353 0)
(1.00391 0.0060283 0)
(1.0046 0.00652522 0)
(1.00488 0.00645055 0)
(1.00553 0.00682766 0)
(1.0061 0.00697991 0)
(1.00717 0.0071487 0)
(1.00754 0.00707105 0)
(1.00808 0.00721304 0)
(1.00825 0.007293 0)
(1.00905 0.00732223 0)
(1.00947 0.00714098 0)
(1.00991 0.00704762 0)
(1.00025 0.000444874 0)
(1.00007 0.00210475 0)
(1.00105 0.00275598 0)
(1.00197 0.00305162 0)
(1.00223 0.00343299 0)
(1.00238 0.00487132 0)
(1.00296 0.00500778 0)
(1.0036 0.00551506 0)
(1.00399 0.00579111 0)
(1.00463 0.0063583 0)
(1.00493 0.00634756 0)
(1.00561 0.00667079 0)
(1.00619 0.00674341 0)
(1.0072 0.0069084 0)
(1.00759 0.00685749 0)
(1.00816 0.00697068 0)
(1.00833 0.00701906 0)
(1.00902 0.00708767 0)
(1.0094 0.00692723 0)
(1.00986 0.00682697 0)
(1.00025 0.000436926 0)
(1.00008 0.00201058 0)
(1.00094 0.00269235 0)
(1.00185 0.00310986 0)
(1.00228 0.00334425 0)
(1.00245 0.00468259 0)
(1.00296 0.00494425 0)
(1.00363 0.00547593 0)
(1.00409 0.00565531 0)
(1.0047 0.00623245 0)
(1.00499 0.00626851 0)
(1.00567 0.00655711 0)
(1.00624 0.00655638 0)
(1.00722 0.00667428 0)
(1.00762 0.00661492 0)
(1.0082 0.00672326 0)
(1.00839 0.00672466 0)
(1.009 0.00680731 0)
(1.00931 0.00669804 0)
(1.00978 0.00657357 0)
(1.00024 0.000427184 0)
(1.00009 0.00192414 0)
(1.00086 0.00263432 0)
(1.00174 0.00317108 0)
(1.00232 0.00331824 0)
(1.00252 0.00452941 0)
(1.00297 0.00486228 0)
(1.00362 0.00540112 0)
(1.00414 0.00548671 0)
(1.00475 0.00601016 0)
(1.00502 0.00608261 0)
(1.00569 0.00637268 0)
(1.00624 0.00634149 0)
(1.00721 0.00642462 0)
(1.00765 0.00633673 0)
(1.00823 0.00644722 0)
(1.00843 0.00644223 0)
(1.00901 0.00649987 0)
(1.00924 0.00645888 0)
(1.0097 0.00632887 0)
(1.00024 0.000429423 0)
(1.00011 0.00182248 0)
(1.0008 0.00252519 0)
(1.00163 0.0031741 0)
(1.00231 0.00327184 0)
(1.00257 0.00436476 0)
(1.00299 0.00474064 0)
(1.00361 0.00531311 0)
(1.00418 0.00535703 0)
(1.0048 0.00581922 0)
(1.00508 0.00589981 0)
(1.00571 0.00620577 0)
(1.00624 0.00615522 0)
(1.00717 0.00622024 0)
(1.00764 0.00609098 0)
(1.00825 0.00616185 0)
(1.00844 0.00617192 0)
(1.00901 0.00619335 0)
(1.00917 0.00618818 0)
(1.00959 0.00609681 0)
(1.00024 0.00042899 0)
(1.00011 0.00173518 0)
(1.00076 0.0024017 0)
(1.00155 0.00316535 0)
(1.00231 0.00324831 0)
(1.00264 0.00423558 0)
(1.00302 0.004618 0)
(1.00359 0.00521843 0)
(1.00419 0.00522877 0)
(1.00483 0.00562758 0)
(1.00513 0.00567654 0)
(1.00573 0.00599763 0)