/*--------------------------------*- C++ -*----------------------------------*\
| =========                 |                                                 |
| \\      /  F ield         | OpenFOAM: The Open Source CFD Toolbox           |
|  \\    /   O peration     | Version:  2506                                  |
|   \\  /    A nd           | Website:  www.openfoam.com                      |
|    \\/     M anipulation  |                                                 |
\*---------------------------------------------------------------------------*/
FoamFile
{
    version     2.0;
    format      ascii;
    arch        "LSB;label=32;scalar=64";
    class       volScalarField;
    location    "5.25";
    object      p;
}
// * * * * * * * * * * * * * * * * * * * * * * * * * * * * * * * * * * * * * //

dimensions      [0 2 -2 0 0 0 0];

internalField   nonuniform List<scalar> 
9600
(
-7.09414e-11
0.00241808
0.00185878
0.000443029
-0.00154965
-0.000893318
0.0016022
0.00336104
0.00726433
0.00363624
0.0056431
0.00413703
0.00486733
0.00156492
-0.00154964
-0.0020422
-0.00478405
-0.00405105
-0.00540097
-0.00499496
-5.23739e-06
0.00242101
0.0018561
0.000451224
-0.001544
-0.000889746
0.00160047
0.00335828
0.00717997
0.00362503
0.00563437
0.00411107
0.00488248
0.00154802
-0.00150377
-0.00207261
-0.00471329
-0.00408036
-0.00536235
-0.00504245
-1.08273e-05
0.00242807
0.00185212
0.000459258
-0.00153645
-0.000886783
0.00159257
0.00335249
0.00710046
0.00361726
0.0056191
0.00408268
0.00487414
0.00151237
-0.0014494
-0.00213202
-0.00460901
-0.00412328
-0.00530991
-0.00510921
-1.44298e-05
0.00243333
0.00184261
0.00046623
-0.00152526
-0.000883583
0.00158406
0.00334937
0.00702721
0.00360832
0.00560324
0.00404206
0.00484518
0.00145902
-0.00139117
-0.00220299
-0.00449943
-0.00416329
-0.00526981
-0.00519578
-1.57166e-05
0.00243406
0.00182594
0.000472702
-0.00150986
-0.000876107
0.00157763
0.00334815
0.00695729
0.00359989
0.00558641
0.00399809
0.00480284
0.00139864
-0.00132594
-0.00227856
-0.00438887
-0.00418985
-0.00525972
-0.00527639
-1.5031e-05
0.00243088
0.00180317
0.000479519
-0.00149015
-0.000862162
0.00157213
0.00334713
0.00688981
0.00359059
0.00556979
0.00395149
0.00475081
0.00133662
-0.00125925
-0.00234947
-0.00427313
-0.00420616
-0.0052758
-0.00533121
-1.30684e-05
0.00242558
0.00177694
0.000487525
-0.00146559
-0.000841275
0.00156668
0.0033454
0.00682275
0.00357957
0.00555268
0.00390353
0.00469336
0.00127582
-0.00119636
-0.00240653
-0.00416001
-0.00421329
-0.00530669
-0.00537199
-1.0654e-05
0.00242007
0.00175002
0.000497204
-0.0014348
-0.00081287
0.00156137
0.00334176
0.00675412
0.00356575
0.00553411
0.00385465
0.00463266
0.00121726
-0.00113936
-0.0024473
-0.00406088
-0.00420642
-0.00535155
-0.00541614
-8.40442e-06
0.00241588
0.00172424
0.000508631
-0.00139601
-0.000776339
0.00155646
0.00333502
0.00668247
0.00354855
0.00551316
0.00380542
0.00456916
0.00116229
-0.0010898
-0.00247269
-0.00398128
-0.00418399
-0.00541575
-0.00547225
-6.58127e-06
0.00241376
0.00170034
0.000521574
-0.00134795
-0.000731703
0.00155227
0.00332448
0.00660689
0.00352786
0.00548926
0.00375642
0.00450221
0.00111306
-0.00104996
-0.00248229
-0.00393464
-0.00414991
-0.00549885
-0.00554437
-5.15356e-06
0.00241374
0.00167816
0.000535625
-0.00129055
-0.000679884
0.00154914
0.0033099
0.00652698
0.00350387
0.00546213
0.00370806
0.00443027
0.00107167
-0.00102167
-0.0024748
-0.00390197
-0.00410819
-0.00559382
-0.00563672
-3.93311e-06
0.00241532
0.00165711
0.000550369
-0.001225
-0.000622716
0.00154711
0.00329116
0.00644274
0.00347683
0.00543163
0.00366079
0.00435161
0.00103922
-0.00100643
-0.0024494
-0.00388906
-0.00406136
-0.00569027
-0.00575163
-2.6763e-06
0.00241785
0.00163658
0.000565563
-0.00115312
-0.000562549
0.00154585
0.00326819
0.00635428
0.00344695
0.00539733
0.00361512
0.00426484
0.00101525
-0.00100529
-0.00240582
-0.00388964
-0.00401237
-0.0057764
-0.00588671
-1.14906e-06
0.00242075
0.00161616
0.000581103
-0.00107656
-0.000501411
0.00154498
0.00324091
0.00626161
0.00341437
0.00535833
0.00357144
0.00416907
0.00099834
-0.00101854
-0.0023453
-0.00389659
-0.00396516
-0.00584052
-0.00603528
8.26759e-07
0.00242357
0.00159556
0.000596803
-0.000996314
-0.000440416
0.00154427
0.00320928
0.00616463
0.00337924
0.00531351
0.00353006
0.00406377
0.000987166
-0.00104595
-0.00227088
-0.00390334
-0.0039251
-0.00587371
-0.00618825
3.35753e-06
0.00242602
0.0015748
0.000612426
-0.000912839
-0.000379864
0.00154376
0.00317336
0.00606328
0.00334191
0.00526164
0.00349154
0.00394863
0.000981074
-0.00108673
-0.0021868
-0.00390407
-0.00389909
-0.0058716
-0.00633746
6.46944e-06
0.00242793
0.00155402
0.000627782
-0.00082628
-0.000319643
0.00154365
0.00313326
0.00595755
0.00330308
0.00520143
0.00345668
0.00382351
0.000979897
-0.00113929
-0.00209851
-0.00389444
-0.003893
-0.00583653
-0.00647685
1.01333e-05
0.00242921
0.00153348
0.00064267
-0.000736607
-0.000259677
0.00154402
0.00308915
0.00584755
0.0032637
0.00513168
0.00342621
0.00368832
0.000983293
-0.001201
-0.00201193
-0.00387128
-0.00390913
-0.00577296
-0.00660061
1.43246e-05
0.0024298
0.0015135
0.000656833
-0.000643835
-0.000200112
0.00154481
0.00304129
0.00573332
0.00322476
0.00505141
0.00340053
0.00354344
0.00099022
-0.00126877
-0.00193301
-0.00383166
-0.0039476
-0.00567073
-0.00670135
1.90555e-05
0.00242955
0.00149441
0.000670008
-0.000548174
-0.000141193
0.00154588
0.00299007
0.00561485
0.00318712
0.00495995
0.00337967
0.00338983
0.000998577
-0.00133894
-0.00186744
-0.00377331
-0.0040061
-0.00554666
-0.00677114
2.43745e-05
0.00242822
0.00147659
0.000682002
-0.000449917
-8.31135e-05
0.00154702
0.00293583
0.00549196
0.00315155
0.00485696
0.0033633
0.00322886
0.00100551
-0.00140724
-0.0018201
-0.00369567
-0.00407994
-0.00544638
-0.00680391
3.0359e-05
0.00242557
0.00146035
0.00069262
-0.000349291
-2.60156e-05
0.00154791
0.00287905
0.00536431
0.00311862
0.00474247
0.00335052
0.0030625
0.00100799
-0.00146954
-0.0017946
-0.00360054
-0.00416133
-0.00536298
-0.00679772
3.71292e-05
0.00242129
0.00144595
0.000701695
-0.000246524
2.99866e-05
0.00154809
0.00282033
0.0052316
0.00308858
0.00461687
0.00334008
0.00289326
0.00100295
-0.0015225
-0.00179249
-0.00349187
-0.00424138
-0.00530073
-0.00675355
4.48496e-05
0.00241504
0.00143363
0.000709144
-0.000141866
8.48894e-05
0.00154702
0.00276027
0.00509354
0.0030614
0.00448093
0.00333043
0.00272386
0.000987264
-0.00156382
-0.00181318
-0.00337529
-0.0043117
-0.00526082
-0.00667712
5.37036e-05
0.00240646
0.00142364
0.000714817
-3.56301e-05
0.000138898
0.0015441
0.00269952
0.00494981
0.00303672
0.00433587
0.00331977
0.00255719
0.000957884
-0.001592
-0.0018547
-0.00325788
-0.00436464
-0.00524116
-0.00657808
6.38886e-05
0.00239518
0.00141624
0.000718618
7.16452e-05
0.000192396
0.00153863
0.00263867
0.00480023
0.00301377
0.00418345
0.00330606
0.00239622
0.000912473
-0.00160696
-0.00191336
-0.00314671
-0.00439497
-0.00523826
-0.00646638
7.56387e-05
0.00238074
0.00141167
0.000720732
0.000179348
0.00024578
0.00152995
0.00257824
0.0046448
0.00299147
0.00402573
0.0032872
0.0022435
0.000849851
-0.00161002
-0.00198385
-0.00304823
-0.00440069
-0.00524877
-0.00635057
8.92133e-05
0.00236275
0.00140996
0.000721328
0.000286871
0.000299566
0.00151746
0.00251872
0.00448379
0.00296842
0.00386483
0.00326125
0.00210073
0.000769998
-0.00160338
-0.00206018
-0.00296773
-0.00438276
-0.00526617
-0.00623782
0.000104864
0.00234083
0.00141111
0.000720583
0.000393432
0.000354453
0.00150063
0.00246026
0.00431798
0.00294304
0.0037029
0.00322651
0.00196906
0.000673772
-0.00159047
-0.00213586
-0.00290765
-0.00434447
-0.00528174
-0.00613374
0.000122835
0.00231465
0.00141511
0.000718811
0.000498044
0.000411138
0.00147905
0.00240289
0.00414836
0.00291349
0.00354197
0.00318192
0.00184904
0.000562794
-0.00157547
-0.0022056
-0.00286779
-0.0042904
-0.00529166
-0.00604176
0.000143362
0.00228402
0.00142174
0.00071639
0.000599692
0.00047028
0.00145258
0.00234647
0.00397597
0.0028777
0.00338365
0.00312702
0.0017406
0.000439459
-0.00156281
-0.0022657
-0.00284592
-0.00422561
-0.00529192
-0.00596319
0.000166683
0.00224885
0.00143054
0.000713786
0.000697509
0.000532564
0.00142125
0.00229025
0.00380215
0.00283397
0.00322851
0.00306166
0.00164328
0.000306887
-0.00155692
-0.0023135
-0.00283798
-0.00415567
-0.00527976
-0.00589759
0.000193013
0.00220915
0.00144095
0.000711533
0.000790602
0.000598413
0.0013854
0.00223327
0.00362801
0.00278109
0.00307655
0.00298573
0.00155615
0.000168999
-0.0015617
-0.00234838
-0.00283853
-0.0040852
-0.00525384
-0.00584327
0.000222514
0.00216501
0.00145242
0.000710244
0.00087808
0.000668028
0.00134558
0.00217443
0.00344846
0.00271865
0.0029273
0.002899
0.00147777
2.99061e-05
-0.00157953
-0.00237144
-0.00284266
-0.00401689
-0.00521386
-0.00579724
0.000255322
0.00211672
0.00146425
0.00071038
0.000959258
0.00074154
0.00130238
0.00211245
0.00327935
0.00264704
0.00278015
0.00280142
0.00140609
-0.000106571
-0.00161102
-0.00238489
-0.00284612
-0.00395254
-0.0051609
-0.005754
0.000291509
0.00206468
0.00147571
0.000712322
0.00103347
0.000818628
0.00125696
0.00204583
0.00311775
0.002567
0.00263475
0.00269329
0.00133816
-0.000237456
-0.00165558
-0.00239217
-0.00284437
-0.00389238
-0.00509834
-0.00570711
0.000331055
0.00200933
0.00148621
0.000716637
0.00109982
0.000899688
0.00121115
0.001973
0.00296152
0.00247985
0.00249085
0.00257513
0.00127105
-0.000361004
-0.00171184
-0.00239738
-0.00283471
-0.0038331
-0.00502904
-0.00565125
0.000373904
0.00195116
0.00149513
0.000723875
0.00115754
0.00098363
0.00116676
0.00189283
0.00281002
0.00238741
0.00234803
0.00244778
0.00120305
-0.000476252
-0.0017781
-0.0024041
-0.00281717
-0.00377115
-0.00495442
-0.00558706
0.000420025
0.00189068
0.00150185
0.000734624
0.00120636
0.00106918
0.00112548
0.00180483
0.00266259
0.00229126
0.00220642
0.00231228
0.00113287
-0.000582563
-0.00185203
-0.00241522
-0.00279353
-0.00370462
-0.00487466
-0.00551907
0.000469267
0.00182859
0.00150578
0.000749505
0.00124605
0.00115457
0.00108942
0.0017093
0.002517
0.00219214
0.00206653
0.00216923
0.00105933
-0.000678737
-0.00193188
-0.00243424
-0.00276573
-0.0036306
-0.00478756
-0.00544792
0.000521282
0.00176584
0.00150638
0.000768653
0.00127658
0.00123813
0.00106073
0.00160742
0.00237058
0.00209005
0.00192857
0.0020195
0.000981641
-0.000763341
-0.00201512
-0.00246437
-0.00273729
-0.00354736
-0.00468948
-0.00537428
0.000575649
0.00170352
0.00150306
0.00079168
0.00129862
0.00131779
0.00104126
0.00150027
0.0022211
0.0019844
0.0017922
0.00186424
0.00089908
-0.000835455
-0.00209702
-0.00250694
-0.00271409
-0.00345726
-0.00457707
-0.00529445
0.000631759
0.00164306
0.00149534
0.000817903
0.00131329
0.00139136
0.00103216
0.00138813
0.00206779
0.00187376
0.00165647
0.00170438
0.000811637
-0.000894357
-0.00217302
-0.00256175
-0.00270094
-0.00336461
-0.0044495
-0.0052011
0.000688829
0.00158622
0.00148265
0.000846265
0.00132265
0.00145687
0.00103267
0.0012789
0.00191039
0.00175771
0.00151999
0.00154009
0.00071968
-0.000939635
-0.00223867
-0.00262713
-0.00270139
-0.00327415
-0.00431073
-0.00508778
0.000746048
0.0015345
0.00146457
0.000875273
0.00132909
0.00151273
0.00104013
0.00117482
0.00175105
0.00163764
0.00138115
0.00137003
0.000623117
-0.00097116
-0.00228916
-0.00269892
-0.00271848
-0.00319051
-0.00416584
-0.00495379
0.000802413
0.00148912
0.00144167
0.000902555
0.00133406
0.00155853
0.00105554
0.00107572
0.00159238
0.00151457
0.00124042
0.00119334
0.000520639
-0.000990032
-0.00231976
-0.00277002
-0.002754
-0.0031181
-0.00401822
-0.0048046
0.000856934
0.00145083
0.00141573
0.000925553
0.00133761
0.00159544
0.00106994
0.000982501
0.00143506
0.00138958
0.00110049
0.00101224
0.000410041
-0.00100039
-0.00232766
-0.00283196
-0.0028067
-0.00306298
-0.00387187
-0.00464749
0.000909038
0.00141979
0.00138931
0.000942551
0.00133826
0.00162561
0.00108442
0.000892176
0.00127808
0.0012644
0.000965573
0.000831854
0.000289848
-0.00100887
-0.00231537
-0.0028767
-0.00287002
-0.00303204
-0.00373041
-0.00448486
0.000958429
0.00139535
0.00136521
0.000952429
0.00133322
0.00165094
0.0010991
0.000801333
0.00111995
0.00114085
0.000841252
0.000658499
0.000160219
-0.00102221
-0.00228881
-0.00290053
-0.00293327
-0.00302654
-0.00360032
-0.00431638
0.00100492
0.00137662
0.00134636
0.00095544
0.00131883
0.00167107
0.00111578
0.000711435
0.000958819
0.00101777
0.000731266
0.000498439
2.46089e-05
-0.00104575
-0.00225411
-0.0029053
-0.00298643
-0.00303991
-0.00349164
-0.00414381
0.00104853
0.00136532
0.00133399
0.000953108
0.0012919
0.00168363
0.00113868
0.000626742
0.000791665
0.000891854
0.000636453
0.000358004
-0.000110681
-0.00108203
-0.00221781
-0.00289445
-0.00302553
-0.00306278
-0.00340926
-0.00397283
0.00108947
0.001356
0.00132769
0.000947646
0.00125094
0.00168534
0.00116848
0.000550123
0.000619712
0.000758729
0.000552608
0.000242735
-0.000237731
-0.00112891
-0.00218619
-0.0028719
-0.00305065
-0.00308667
-0.00335047
-0.0038131
0.0011281
0.00134985
0.00132678
0.000942029
0.00119615
0.00166988
0.00120323
0.000490621
0.000449635
0.000611153
0.00047271
0.000154315
-0.000346851
-0.00118166
-0.00216348
-0.00284268
-0.00306337
-0.00310597
-0.00330722
-0.00367219
0.00116522
0.00134504
0.00132966
0.000940105
0.00112938
0.0016304
0.00123834
0.000457325
0.000287483
0.000447477
0.000386359
8.68046e-05
-0.000429273
-0.00123165
-0.00214926
-0.00281299
-0.00306642
-0.00311811
-0.00327188
-0.00355279
0.00120187
0.00134102
0.00133471
0.00094424
0.00105291
0.00156393
0.0012682
0.000451689
0.000145845
0.000273923
0.000282065
3.13693e-05
-0.000482185
-0.00126682
-0.00213909
-0.00278589
-0.00306367
-0.00312539
-0.0032396
-0.0034509
0.0012388
0.00133684
0.00134015
0.0009553
0.000970818
0.00146991
0.00128298
0.000469712
3.85435e-05
9.81158e-05
0.000154673
-2.64402e-05
-0.000512272
-0.00127797
-0.00212395
-0.00275932
-0.00305883
-0.0031321
-0.00320848
-0.0033596
0.00127674
0.00133261
0.0013415
0.000973197
0.000889942
0.00134978
0.00127461
0.000507821
-2.91533e-05
-6.53043e-05
8.79003e-06
-0.000100302
-0.000528669
-0.00126394
-0.00209353
-0.0027294
-0.00305086
-0.00314055
-0.00318264
-0.0032737
0.00131701
0.00132914
0.00133308
0.000996313
0.000818962
0.00120722
0.00123712
0.00055779
-5.97108e-05
-0.000200848
-0.0001469
-0.000197473
-0.000546605
-0.00123085
-0.00204128
-0.0026877
-0.00303486
-0.00314757
-0.00316706
-0.00319524
0.00135461
0.00132556
0.00131588
0.00102163
0.000766029
0.00105274
0.00116616
0.000604779
-5.7284e-05
-0.000301708
-0.000297051
-0.000314661
-0.000581103
-0.0011879
-0.00196769
-0.00262655
-0.00300624
-0.00314719
-0.00316071
-0.00313093
0.00138973
0.00132347
0.00129019
0.00104252
0.000734315
0.000902765
0.0010628
0.000634049
-2.6818e-05
-0.00036601
-0.000426271
-0.000441365
-0.000639311
-0.001151
-0.00187783
-0.00254246
-0.00295973
-0.00313437
-0.00315572
-0.00308488
0.00142099
0.00132247
0.00125856
0.00105239
0.000720686
0.000770932
0.00093178
0.000634382
1.92521e-05
-0.000394628
-0.00052839
-0.000562736
-0.000714611
-0.00113368
-0.00178346
-0.0024372
-0.00288964
-0.00310377
-0.00314298
-0.00305259
0.00144679
0.00132267
0.00122385
0.00104874
0.000719577
0.000664991
0.000787229
0.000601179
6.56417e-05
-0.000390228
-0.000598564
-0.00066852
-0.00079714
-0.00113869
-0.0016998
-0.00231734
-0.00279436
-0.00305133
-0.00311558
-0.00302164
0.00146639
0.00132301
0.00118924
0.00103231
0.000722461
0.000586222
0.000646049
0.000538198
9.94327e-05
-0.000360399
-0.000632477
-0.000751232
-0.000876291
-0.00115781
-0.0016363
-0.002197
-0.00267793
-0.00297456
-0.00306945
-0.00298184
0.00147931
0.00132277
0.00115513
0.00100502
0.000721892
0.000531268
0.000520205
0.000451785
0.000112193
-0.000319865
-0.000634996
-0.000802719
-0.000942778
-0.00118267
-0.00158986
-0.00208808
-0.00254915
-0.00287438
-0.00300355
-0.00292853
0.00148529
0.00131987
0.00112456
0.000969868
0.000712747
0.000494378
0.000416687
0.000354626
0.000102483
-0.000278306
-0.000612817
-0.000821725
-0.000987968
-0.00120588
-0.0015523
-0.0019921
-0.00241867
-0.00275292
-0.00291572
-0.00286033
0.00148418
0.00131448
0.00109548
0.000929652
0.000692783
0.000467994
0.000336398
0.000260758
7.33272e-05
-0.000241968
-0.000571223
-0.000810863
-0.00100478
-0.00121966
-0.00151968
-0.00190586
-0.00229367
-0.00261644
-0.00280349
-0.00277293
0.00147586
0.00130209
0.00107147
0.000888696
0.000663708
0.000444662
0.000276621
0.000179353
3.09804e-05
-0.000219765
-0.000518233
-0.000772259
-0.000989201
-0.00121221
-0.00148505
-0.00182452
-0.00217735
-0.00247691
-0.00267125
-0.00266448
0.00146184
0.00128552
0.00104207
0.000846919
0.000627953
0.000418628
0.000231747
0.000116557
-1.28571e-05
-0.000211176
-0.000466314
-0.000712416
-0.000942278
-0.0011732
-0.00143311
-0.00173677
-0.00206074
-0.0023408
-0.00252916
-0.00253988
0.00144078
0.00126294
0.00101158
0.000803156
0.000587189
0.000387449
0.000194605
6.74591e-05
-4.67482e-05
-0.000204673
-0.000417765
-0.000640512
-0.00086925
-0.00110178
-0.00135201
-0.00162888
-0.00192729
-0.0021935
-0.00237364
-0.00239518
0.00141058
0.0012313
0.000981309
0.000764438
0.000543512
0.00035274
0.000161681
2.82304e-05
-7.56739e-05
-0.000197548
-0.000366909
-0.000558628
-0.000771383
-0.00099815
-0.00123842
-0.00149137
-0.0017636
-0.0020192
-0.00219607
-0.0022248
0.0013768
0.00119828
0.00093922
0.000718152
0.000498994
0.00031445
0.000129649
-2.22258e-06
-9.85145e-05
-0.000191626
-0.000314569
-0.000466456
-0.000650161
-0.000856789
-0.00108261
-0.00131592
-0.00156381
-0.00180734
-0.00198341
-0.00202099
0.00133388
0.00115458
0.000894752
0.000673259
0.000452489
0.000270149
9.69095e-05
-2.66193e-05
-0.000115252
-0.000186513
-0.00026139
-0.000356501
-0.000493082
-0.000661837
-0.000862962
-0.00107678
-0.00130064
-0.00153298
-0.00171353
-0.00176339
0.00128007
0.00110112
0.000848723
0.000627699
0.000402894
0.000220609
5.54017e-05
-5.60814e-05
-0.000138477
-0.000215903
-0.000267746
-0.000312637
-0.000387905
-0.000490324
-0.000628978
-0.00080636
-0.00100313
-0.00122004
-0.00141013
-0.0014867
0.00122303
0.00104474
0.000786796
0.000567341
0.000348592
0.000169388
1.21854e-05
-8.36736e-05
-0.000123541
-0.000102435
-8.1639e-05
-4.91569e-05
-5.66098e-05
-9.74292e-05
-0.000155609
-0.00026892
-0.000427866
-0.000626927
-0.000849469
-0.00102185
0.00115827
0.000976947
0.000715712
0.00050155
0.000292139
0.000115155
-4.10752e-05
-0.000149575
-0.000275327
-0.0003892
-0.000435471
-0.000338353
-8.64998e-05
0.000148644
0.000288919
0.00033961
0.000365128
0.000436348
0.00054873
0.000656306
0.00107896
0.000891935
0.000637595
0.000444968
0.000263198
8.5487e-05
-0.000104246
-0.000232872
-0.000205404
-1.64063e-05
0.000188743
0.000332138
0.000424294
0.000486752
0.000551161
0.000636924
0.000735916
0.000846519
0.000932555
0.000927252
0.000979651
0.000796629
0.000529848
0.000326534
0.000142567
4.87772e-05
4.24603e-05
0.000107795
0.000144553
0.000177072
0.000175485
0.000197912
0.000251567
0.000325161
0.000429508
0.00057329
0.000753282
0.000963888
0.00117436
0.00130051
0.000855471
0.000711973
0.000517027
0.0004167
0.000353483
0.000289497
0.000211553
0.000153755
0.000149048
0.000218263
0.000299112
0.000407099
0.000534794
0.000628737
0.000678651
0.000664939
0.000541554
0.000294153
-3.19167e-05
-0.000352833
0.000682054
0.000521046
0.000424969
0.000442899
0.000417809
0.000338714
0.000234731
0.000188771
0.000167443
0.000222279
0.000302474
0.00037332
0.000477804
0.000613015
0.000758289
0.000923319
0.00111377
0.00131781
0.00148637
0.00155298
0.000581581
0.000427703
0.000374461
0.000457113
0.00051504
0.00049758
0.000402642
0.000316577
0.000268104
0.000307918
0.000404554
0.000506578
0.000641696
0.000834475
0.00103638
0.00123289
0.00141804
0.00156642
0.00163281
0.00154913
-0.00563513
-0.00665853
-0.0104273
-0.0145561
-0.0155064
-0.0137805
-0.0112773
-0.0090442
-0.00734548
-0.0061076
-0.00531931
-0.00494821
-0.00470692
-0.0043228
-0.00385471
-0.00347143
-0.00320729
-0.00301737
-0.00285322
-0.00270108
-0.00257649
-0.00245666
-0.00229328
-0.00206848
-0.0017847
-0.00142575
-0.00101716
-0.000630518
-0.000317611
-8.11748e-05
0.000158433
0.000485351
0.000826562
0.00107901
0.00130465
0.00161266
0.00195639
0.00226229
0.00256618
0.00289505
0.00321943
0.00353486
0.00385442
0.00416836
0.00447723
0.00477959
0.00508172
0.0053712
0.00568008
0.00604472
0.00645546
0.00686145
0.0072487
0.00762194
0.00799856
0.00834197
0.0086962
0.00911829
0.0095568
0.00996174
0.0103822
0.0108401
0.0112992
0.0117516
0.0122223
0.0127111
0.0131527
0.0135737
0.013998
0.01449
0.0150204
0.015572
0.0161203
0.0166718
0.0172051
0.0177135
0.0182575
0.0188444
0.0194424
0.0200199
0.0206141
0.0212407
0.021847
0.0224835
0.0231173
0.0237951
0.0244713
0.0251556
0.0258561
0.0265759
0.0273339
0.0281071
0.0288946
0.0296454
0.0304765
0.0312148
0.0321108
0.032933
0.0336641
0.0347441
-0.005766
-0.00672977
-0.0103261
-0.0144114
-0.0154209
-0.0137392
-0.0112528
-0.00902717
-0.00733237
-0.00609619
-0.00530862
-0.00493866
-0.00469884
-0.00431576
-0.00384832
-0.00346568
-0.00320218
-0.00301282
-0.00284918
-0.00269747
-0.00257329
-0.00245387
-0.0022908
-0.00206623
-0.00178268
-0.00142394
-0.00101545
-0.000628861
-0.000316023
-7.97406e-05
0.000159625
0.000486421
0.000827668
0.00108006
0.00130552
0.00161343
0.00195716
0.00226302
0.00256683
0.00289567
0.00322003
0.00353542
0.00385497
0.00416889
0.00447776
0.00478009
0.00508222
0.00537168
0.00568052
0.00604512
0.00645587
0.00686186
0.00724911
0.00762233
0.00799895
0.00834235
0.00869654
0.00911861
0.00955713
0.00996206
0.0103825
0.0108404
0.0112995
0.0117518
0.0122225
0.0127114
0.013153
0.0135739
0.0139982
0.0144902
0.0150206
0.0155722
0.0161205
0.016672
0.0172052
0.0177136
0.0182576
0.0188446
0.0194425
0.0200201
0.0206143
0.0212408
0.0218471
0.0224836
0.0231174
0.0237952
0.0244714
0.0251557
0.0258563
0.026576
0.027334
0.0281072
0.0288947
0.0296455
0.0304766
0.0312149
0.0321109
0.0329331
0.0336642
0.0347442
-0.00602824
-0.00686168
-0.0101265
-0.014119
-0.0152602
-0.0136762
-0.0112206
-0.00900498
-0.00731624
-0.00608471
-0.00529995
-0.00493102
-0.00469142
-0.00430858
-0.00384176
-0.00345994
-0.00319715
-0.00300834
-0.00284514
-0.00269385
-0.00257018
-0.00245129
-0.00228861
-0.00206425
-0.00178086
-0.00142222
-0.00101377
-0.000627265
-0.000314532
-7.84268e-05
0.000160712
0.00048744
0.000828732
0.00108102
0.00130627
0.00161412
0.00195789
0.00226368
0.00256741
0.00289623
0.00322057
0.00353592
0.00385545
0.00416937
0.00447821
0.00478054
0.00508265
0.00537209
0.00568087
0.00604545
0.00645622
0.00686224
0.00724948
0.00762267
0.00799929
0.00834268
0.00869681
0.00911888
0.00955743
0.00996234
0.0103828
0.0108407
0.0112997
0.0117521
0.0122227
0.0127116
0.0131532
0.0135741
0.0139984
0.0144904
0.0150208
0.0155724
0.0161207
0.0166722
0.0172054
0.0177138
0.0182577
0.0188447
0.0194427
0.0200202
0.0206144
0.021241
0.0218472
0.0224837
0.0231175
0.0237953
0.0244715
0.0251558
0.0258564
0.0265761
0.0273341
0.0281073
0.0288948
0.0296456
0.0304767
0.0312149
0.032111
0.0329332
0.0336642
0.0347443
-0.00629797
-0.00697111
-0.00984665
-0.013729
-0.0150324
-0.0135844
-0.0111738
-0.00897183
-0.0072916
-0.00606871
-0.00529077
-0.00492406
-0.00468363
-0.00430033
-0.00383439
-0.00345372
-0.00319152
-0.00300293
-0.00283993
-0.00268902
-0.00256605
-0.00244801
-0.00228598
-0.00206187
-0.00177853
-0.00141995
-0.0010117
-0.000625427
-0.000312823
-7.68276e-05
0.000162107
0.000488702
0.000829952
0.00108211
0.00130717
0.00161497
0.00195873
0.00226442
0.00256808
0.00289688
0.00322115
0.00353644
0.00385597
0.00416986
0.00447869
0.00478098
0.00508309
0.00537249
0.00568121
0.00604577
0.00645658
0.00686263
0.00724987
0.00762303
0.00799964
0.00834301
0.00869708
0.00911916
0.00955774
0.00996262
0.010383
0.0108409
0.0113
0.0117523
0.012223
0.0127119
0.0131535
0.0135744
0.0139985
0.0144906
0.015021
0.0155726
0.0161209
0.0166723
0.0172056
0.0177139
0.0182579
0.0188449
0.0194428
0.0200203
0.0206145
0.0212411
0.0218473
0.0224838
0.0231176
0.0237954
0.0244716
0.0251559
0.0258565
0.0265762
0.0273341
0.0281074
0.0288949
0.0296456
0.0304768
0.031215
0.032111
0.0329333
0.0336643
0.0347446
-0.00652741
-0.00706558
-0.00955084
-0.0133076
-0.0147774
-0.0134821
-0.0111222
-0.00893198
-0.00725886
-0.00604666
-0.00527911
-0.0049162
-0.00467425
-0.00429005
-0.00382569
-0.0034469
-0.00318538
-0.00299661
-0.00283337
-0.00268256
-0.00256026
-0.00244335
-0.00228233
-0.00205852
-0.00177497
-0.00141641
-0.00100874
-0.000623131
-0.000310683
-7.45579e-05
0.000164244
0.00049047
0.000831455
0.00108349
0.00130846
0.00161615
0.00195981
0.00226537
0.00256898
0.00289772
0.00322187
0.00353706
0.00385658
0.00417044
0.00447921
0.00478146
0.00508356
0.00537293
0.00568158
0.00604611
0.00645696
0.00686307
0.00725032
0.00762343
0.00800001
0.00834335
0.00869736
0.00911946
0.00955807
0.00996292
0.0103833
0.0108412
0.0113003
0.0117526
0.0122232
0.0127121
0.0131538
0.0135746
0.0139987
0.0144907
0.0150212
0.0155728
0.0161211
0.0166726
0.0172058
0.0177141
0.018258
0.018845
0.019443
0.0200205
0.0206146
0.0212412
0.0218475
0.0224839
0.0231177
0.0237955
0.0244718
0.025156
0.0258566
0.0265763
0.0273342
0.0281075
0.028895
0.0296457
0.0304769
0.0312151
0.0321111
0.0329334
0.0336643
0.034745
-0.00672597
-0.00718364
-0.00927111
-0.01287
-0.0145015
-0.0133735
-0.0110707
-0.00889004
-0.00722126
-0.00601971
-0.00526437
-0.00490636
-0.00466277
-0.00427778
-0.00381576
-0.0034396
-0.00317893
-0.00298968
-0.00282579
-0.00267476
-0.00255292
-0.00243726
-0.00227757
-0.00205397
-0.00176971
-0.00141094
-0.00100438
-0.000620138
-0.000307944
-7.12771e-05
0.000167539
0.000492982
0.000833327
0.00108533
0.00131036
0.00161784
0.0019612
0.00226664
0.00257022
0.00289885
0.00322279
0.00353786
0.00385736
0.00417116
0.00447983
0.00478198
0.00508405
0.00537342
0.005682
0.00604648
0.00645738
0.00686358
0.00725084
0.00762387
0.0080004
0.00834372
0.00869768
0.00911979
0.00955841
0.00996324
0.0103836
0.0108415
0.0113006
0.0117529
0.0122235
0.0127124
0.0131541
0.0135749
0.0139989
0.0144909
0.0150214
0.015573
0.0161213
0.0166728
0.017206
0.0177142
0.0182581
0.0188452
0.0194432
0.0200206
0.0206147
0.0212414
0.0218476
0.0224841
0.0231178
0.0237956
0.0244719
0.0251561
0.0258567
0.0265764
0.0273343
0.0281076
0.0288951
0.0296458
0.030477
0.0312152
0.0321111
0.0329336
0.0336644
0.0347456
-0.00691023
-0.00733371
-0.00900971
-0.0124123
-0.0142001
-0.0132567
-0.01102
-0.00884822
-0.00718135
-0.00598964
-0.00524704
-0.00489453
-0.00464956
-0.00426408
-0.00380496
-0.00343198
-0.00317238
-0.00298255
-0.0028178
-0.0026663
-0.00254464
-0.00243021
-0.00227203
-0.00204844
-0.00176272
-0.00140329
-0.000998269
-0.000616159
-0.000304393
-6.67027e-05
0.000172318
0.000496425
0.000835632
0.00108775
0.00131309
0.00162017
0.00196298
0.00226831
0.00257192
0.00290034
0.00322396
0.00353889
0.00385839
0.00417212
0.00448063
0.00478262
0.00508462
0.00537398
0.00568249
0.00604688
0.00645783
0.00686417
0.00725147
0.00762438
0.00800083
0.00834413
0.00869807
0.00912015
0.00955876
0.00996358
0.0103839
0.0108418
0.0113009
0.0117532
0.0122238
0.0127128
0.0131544
0.0135751
0.0139991
0.0144911
0.0150216
0.0155732
0.0161216
0.0166731
0.0172063
0.0177144
0.0182583
0.0188453
0.0194434
0.0200208
0.0206149
0.0212415
0.0218477
0.0224842
0.0231179
0.0237957
0.024472
0.0251562
0.0258568
0.0265765
0.0273344
0.0281077
0.0288952
0.0296459
0.0304771
0.0312153
0.0321111
0.0329338
0.0336646
0.0347463
-0.00707545
-0.00750132
-0.00876376
-0.0119353
-0.0138729
-0.0131316
-0.0109714
-0.0088084
-0.00714084
-0.00595761
-0.00522786
-0.00488144
-0.00463541
-0.0042496
-0.0037936
-0.00342408
-0.00316578
-0.00297542
-0.00280976
-0.00265768
-0.0025361
-0.0024229
-0.00226633
-0.00204246
-0.00175448
-0.00139375
-0.000990432
-0.000611044
-0.000299845
-6.0674e-05
0.000178732
0.000500895
0.000838401
0.00109079
0.00131672
0.0016232
0.00196517
0.0022704
0.00257412
0.00290222
0.00322538
0.00354015
0.0038597
0.00417342
0.00448175
0.00478349
0.00508537
0.0053747
0.0056831
0.00604731
0.0064583
0.00686487
0.00725227
0.00762501
0.00800131
0.00834463
0.00869857
0.00912056
0.0095591
0.00996394
0.0103843
0.0108422
0.0113012
0.0117535
0.0122242
0.0127131
0.0131548
0.0135754
0.0139993
0.0144914
0.0150219
0.0155735
0.0161219
0.0166734
0.0172066
0.0177147
0.0182585
0.0188456
0.0194436
0.020021
0.0206151
0.0212417
0.0218479
0.0224844
0.0231181
0.0237959
0.0244721
0.0251564
0.0258569
0.0265766
0.0273345
0.0281078
0.0288954
0.029646
0.0304772
0.0312154
0.0321112
0.032934
0.0336648
0.0347473
-0.00720884
-0.00767386
-0.00854075
-0.0114494
-0.0135227
-0.0129984
-0.0109251
-0.00877129
-0.00710042
-0.00592422
-0.00520751
-0.00486781
-0.00462095
-0.00423472
-0.00378186
-0.00341602
-0.00315923
-0.00296842
-0.0028018
-0.00264909
-0.00252758
-0.00241572
-0.0022609
-0.00203656
-0.00174566
-0.00138298
-0.000981293
-0.000604908
-0.000294296
-5.32449e-05
0.000186704
0.000506383
0.000841629
0.00109439
0.00132118
0.00162691
0.00196775
0.00227293
0.00257683
0.00290449
0.00322703
0.00354157
0.00386122
0.00417501
0.00448321
0.00478471
0.00508644
0.00537573
0.00568392
0.00604779
0.00645873
0.00686563
0.00725324
0.0076258
0.00800189
0.00834528
0.00869923
0.00912104
0.00955943
0.00996431
0.0103847
0.0108425
0.0113015
0.0117539
0.0122246
0.0127136
0.0131552
0.0135758
0.0139995
0.0144916
0.0150222
0.0155737
0.0161222
0.0166737
0.0172069
0.0177149
0.0182588
0.0188459
0.0194439
0.0200213
0.0206153
0.0212419
0.0218481
0.0224846
0.0231182
0.023796
0.0244723
0.0251565
0.025857
0.0265767
0.0273347
0.0281079
0.0288955
0.0296461
0.0304774
0.0312156
0.0321111
0.0329344
0.0336652
0.0347485
-0.0073027
-0.00784419
-0.00835167
-0.0109655
-0.0131506
-0.0128537
-0.0108793
-0.00873672
-0.00706063
-0.00589005
-0.00518648
-0.00485408
-0.00460649
-0.00421964
-0.00376988
-0.00340793
-0.0031529
-0.00296171
-0.002794
-0.00264053
-0.00251908
-0.0024087
-0.00225583
-0.002031
-0.00173676
-0.00137162
-0.000971364
-0.000598042
-0.000287947
-4.46786e-05
0.00019599
0.000512816
0.000845319
0.00109843
0.00132626
0.00163114
0.00197067
0.0022758
0.00257999
0.00290716
0.00322889
0.00354307
0.00386282
0.00417675
0.00448493
0.00478629
0.00508794
0.00537724
0.00568513
0.00604841
0.00645912
0.00686638
0.00725432
0.00762672
0.00800261
0.00834612
0.00870015
0.00912165
0.00955981
0.00996474
0.0103851
0.0108428
0.0113018
0.0117543
0.012225
0.012714