/*--------------------------------*- C++ -*----------------------------------*\
| =========                 |                                                 |
| \\      /  F ield         | OpenFOAM: The Open Source CFD Toolbox           |
|  \\    /   O peration     | Version:  2506                                  |
|   \\  /    A nd           | Website:  www.openfoam.com                      |
|    \\/     M anipulation  |                                                 |
\*---------------------------------------------------------------------------*/
FoamFile
{
    version     2.0;
    format      ascii;
    arch        "LSB;label=32;scalar=64";
    class       volVectorField;
    location    "5.55";
    object      U;
}
// * * * * * * * * * * * * * * * * * * * * * * * * * * * * * * * * * * * * * //

dimensions      [0 1 -1 0 0 0 0];

internalField   nonuniform List<vector> 
9600
(
(0.892572 -0.00816384 0)
(1.05808 0.0128941 0)
(0.941603 0.000784512 0)
(1.01492 -0.00608759 0)
(1.01155 -0.0226945 0)
(1.06936 -0.000816486 0)
(1.0521 0.0165003 0)
(1.05338 0.0105873 0)
(1.02683 0.0273199 0)
(1.04 -0.0181618 0)
(0.952715 0.00521709 0)
(1.04179 -0.0377973 0)
(0.850438 -0.0200728 0)
(1.06513 -0.0371151 0)
(0.799372 -0.0283313 0)
(1.1202 -0.0233164 0)
(0.829887 -0.0262966 0)
(1.14376 -0.00839692 0)
(0.867982 -0.00688239 0)
(1.14384 0.0050796 0)
(0.90461 -0.00789066 0)
(1.0548 0.0127163 0)
(0.954311 0.00116757 0)
(1.00466 -0.00665535 0)
(1.00931 -0.0233471 0)
(1.06471 -0.00127035 0)
(1.05494 0.016453 0)
(1.05071 0.0108958 0)
(1.03048 0.0271299 0)
(1.03578 -0.0166697 0)
(0.975592 0.0047187 0)
(1.01976 -0.0352798 0)
(0.909469 -0.0209328 0)
(1.01501 -0.03555 0)
(0.873793 -0.0298445 0)
(1.04581 -0.0242056 0)
(0.913811 -0.026907 0)
(1.05745 -0.0100008 0)
(0.974321 -0.00609368 0)
(1.02555 0.00313613 0)
(0.923603 -0.00766693 0)
(1.04724 0.0124004 0)
(0.970102 0.00153459 0)
(0.990629 -0.00708709 0)
(1.00427 -0.023895 0)
(1.05473 -0.0017548 0)
(1.0585 0.0165513 0)
(1.04951 0.0112872 0)
(1.03449 0.0273189 0)
(1.03622 -0.0159952 0)
(0.992925 0.00494783 0)
(1.01479 -0.0347195 0)
(0.949917 -0.0209962 0)
(0.994415 -0.0352888 0)
(0.933547 -0.0302291 0)
(0.998104 -0.0251596 0)
(0.969308 -0.0269459 0)
(1.00695 -0.0116451 0)
(1.00527 -0.00545266 0)
(1.00594 0.00317472 0)
(0.945456 -0.00752467 0)
(1.03623 0.012075 0)
(0.982898 0.00196101 0)
(0.979176 -0.00731013 0)
(0.996478 -0.0244893 0)
(1.04179 -0.00229381 0)
(1.05984 0.0165912 0)
(1.05041 0.0116579 0)
(1.03901 0.0273779 0)
(1.03731 -0.0152038 0)
(1.00569 0.00503121 0)
(1.01145 -0.0336768 0)
(0.971908 -0.0206134 0)
(0.984741 -0.0349003 0)
(0.95904 -0.0299743 0)
(0.980136 -0.0260303 0)
(0.984275 -0.027202 0)
(0.994358 -0.0124762 0)
(1.00607 -0.00564767 0)
(1.01006 0.00339415 0)
(0.965874 -0.00743838 0)
(1.02402 0.0118279 0)
(0.991021 0.00241389 0)
(0.974679 -0.00737447 0)
(0.98786 -0.0250677 0)
(1.02887 -0.00296577 0)
(1.05858 0.0164118 0)
(1.05202 0.0119418 0)
(1.04323 0.0274158 0)
(1.03944 -0.0145187 0)
(1.01284 0.00522601 0)
(1.01321 -0.0328943 0)
(0.98338 -0.0203103 0)
(0.98454 -0.0345494 0)
(0.969873 -0.0297257 0)
(0.977028 -0.0267041 0)
(0.984457 -0.0274004 0)
(0.990884 -0.0131586 0)
(1.00409 -0.00618302 0)
(1.01125 0.00346897 0)
(0.981559 -0.007386 0)
(1.01319 0.0116686 0)
(0.995757 0.00280887 0)
(0.977343 -0.00730664 0)
(0.980835 -0.0255593 0)
(1.01742 -0.00377481 0)
(1.05547 0.0160263 0)
(1.05232 0.0121617 0)
(1.04676 0.02745 0)
(1.0402 -0.0138078 0)
(1.01799 0.00539736 0)
(1.01463 -0.0320448 0)
(0.98904 -0.0199579 0)
(0.985632 -0.0341017 0)
(0.974783 -0.0295128 0)
(0.977319 -0.0270351 0)
(0.982733 -0.0275713 0)
(0.987451 -0.0139224 0)
(1.00113 -0.00681776 0)
(1.00968 0.00334209 0)
(0.991275 -0.00734912 0)
(1.00532 0.0115704 0)
(0.999132 0.00309299 0)
(0.984429 -0.00713576 0)
(0.976795 -0.0258924 0)
(1.00734 -0.00464818 0)
(1.05034 0.0155065 0)
(1.04957 0.012306 0)
(1.04859 0.0274691 0)
(1.03926 -0.0130926 0)
(1.02204 0.00553117 0)
(1.01637 -0.0311704 0)
(0.992917 -0.0196031 0)
(0.987439 -0.0336315 0)
(0.977696 -0.0293031 0)
(0.978357 -0.0271871 0)
(0.981981 -0.0277934 0)
(0.984804 -0.0145365 0)
(0.997593 -0.00750809 0)
(1.00696 0.00288314 0)
(0.995761 -0.00731087 0)
(1.00065 0.0114931 0)
(1.00229 0.00326235 0)
(0.992722 -0.00689234 0)
(0.975755 -0.026027 0)
(0.998095 -0.00551109 0)
(1.04236 0.014907 0)
(1.04287 0.0123442 0)
(1.04831 0.0274487 0)
(1.03653 -0.0123992 0)
(1.02577 0.00559003 0)
(1.01747 -0.0302407 0)
(0.996226 -0.0192733 0)
(0.989322 -0.0330918 0)
(0.979587 -0.0290968 0)
(0.979365 -0.0272774 0)
(0.981901 -0.0279974 0)
(0.983477 -0.0149407 0)
(0.995078 -0.00828106 0)
(1.00463 0.00222194 0)
(0.996799 -0.00725981 0)
(0.99854 0.0113966 0)
(1.00533 0.00333384 0)
(1.00001 -0.00660797 0)
(0.976909 -0.0259603 0)
(0.989575 -0.0062959 0)
(1.03161 0.0142788 0)
(1.03292 0.0122526 0)
(1.04625 0.0273398 0)
(1.03272 -0.0117628 0)
(1.02916 0.0055543 0)
(1.01804 -0.0292536 0)
(0.999666 -0.0189842 0)
(0.991442 -0.0324377 0)
(0.981283 -0.0289382 0)
(0.980157 -0.0272601 0)
(0.981743 -0.0282041 0)
(0.982897 -0.0152982 0)
(0.994065 -0.0091163 0)
(1.00379 0.00148315 0)
(0.996211 -0.00719247 0)
(0.998025 0.0112558 0)
(1.00788 0.00333093 0)
(1.00534 -0.0063073 0)
(0.979296 -0.0257123 0)
(0.982302 -0.006942 0)
(1.01968 0.0136721 0)
(1.02192 0.012007 0)
(1.04324 0.0271088 0)
(1.02888 -0.0111972 0)
(1.03174 0.00541741 0)
(1.01812 -0.0282139 0)
(1.00305 -0.0187591 0)
(0.993786 -0.0316638 0)
(0.983191 -0.0287929 0)
(0.980912 -0.0271052 0)
(0.98097 -0.0284504 0)
(0.982192 -0.015682 0)
(0.993696 -0.00997072 0)
(1.00412 0.000627216 0)
(0.995303 -0.00711172 0)
(0.99825 0.0110673 0)
(1.00971 0.00327811 0)
(1.00866 -0.00600432 0)
(0.982145 -0.0253176 0)
(0.977032 -0.00742579 0)
(1.00897 0.0131095 0)
(1.01248 0.0116025 0)
(1.03991 0.0267449 0)
(1.0259 -0.0106924 0)
(1.03276 0.00519107 0)
(1.01796 -0.0271258 0)
(1.00576 -0.0186206 0)
(0.996174 -0.0307648 0)
(0.985284 -0.0286401 0)
(0.981904 -0.0267723 0)
(0.979613 -0.028686 0)
(0.980754 -0.0161132 0)
(0.992634 -0.0108521 0)
(1.00402 -0.000462524 0)
(0.99478 -0.00702198 0)
(0.998578 0.0108398 0)
(1.01078 0.00320285 0)
(1.0104 -0.00571264 0)
(0.984969 -0.0248175 0)
(0.97419 -0.00777 0)
(1.00131 0.0125844 0)
(1.00624 0.0110679 0)
(1.03642 0.0262619 0)
(1.02413 -0.0102193 0)
(1.03173 0.00489751 0)
(1.01774 -0.0260044 0)
(1.00722 -0.0185772 0)
(0.998229 -0.0297608 0)
(0.987263 -0.0284802 0)
(0.983117 -0.0262507 0)
(0.978216 -0.0288247 0)
(0.978525 -0.016542 0)
(0.990017 -0.0117574 0)
(1.00177 -0.00179718 0)
(0.994883 -0.00692631 0)
(0.99861 0.0105854 0)
(1.01114 0.00312055 0)
(1.01108 -0.00544321 0)
(0.987544 -0.0242527 0)
(0.973536 -0.00801487 0)
(0.997054 0.0120784 0)
(1.00321 0.0104625 0)
(1.03256 0.0256912 0)
(1.02324 -0.00974241 0)
(1.02883 0.00455288 0)
(1.0175 -0.0248673 0)
(1.00737 -0.018616 0)
(0.999586 -0.0286931 0)
(0.988907 -0.0283151 0)
(0.984235 -0.0255793 0)
(0.977425 -0.0287735 0)
(0.975976 -0.0169342 0)
(0.985983 -0.0125563 0)
(0.996817 -0.00324673 0)
(0.99554 -0.00682647 0)
(0.998194 0.010319 0)
(1.01089 0.00303421 0)
(1.01117 -0.0052003 0)
(0.98984 -0.0236498 0)
(0.974289 -0.00819902 0)
(0.995183 0.0115816 0)
(1.00211 0.00985258 0)
(1.02819 0.0250632 0)
(1.02258 -0.00924161 0)
(1.02488 0.00416689 0)
(1.0171 -0.0237423 0)
(1.00668 -0.0187102 0)
(1.0001 -0.0276123 0)
(0.990211 -0.0281566 0)
(0.984951 -0.02481 0)
(0.977512 -0.028509 0)
(0.973775 -0.0172606 0)
(0.981441 -0.0130963 0)
(0.99014 -0.00468522 0)
(0.996502 -0.00672207 0)
(0.99741 0.0100515 0)
(1.0102 0.00294481 0)
(1.01097 -0.00499059 0)
(0.991891 -0.0230211 0)
(0.97557 -0.00833933 0)
(0.994213 0.0111002 0)
(1.0014 0.00928461 0)
(1.02344 0.0243957 0)
(1.02163 -0.00871695 0)
(1.0209 0.00373587 0)
(1.01646 -0.0226483 0)
(1.00579 -0.0188357 0)
(0.999924 -0.0265456 0)
(0.991267 -0.0280062 0)
(0.985215 -0.0240041 0)
(0.978257 -0.0280723 0)
(0.972402 -0.0174839 0)
(0.977421 -0.0132651 0)
(0.98349 -0.00595069 0)
(0.997489 -0.00661149 0)
(0.996481 0.00978891 0)
(1.00929 0.00285147 0)
(1.01066 -0.00481938 0)
(0.993691 -0.0223728 0)
(0.976796 -0.00843331 0)
(0.993154 0.0106477 0)
(1.00025 0.0087745 0)
(1.01875 0.0236931 0)
(1.02027 -0.00818258 0)
(1.01759 0.00325084 0)
(1.0156 -0.0215824 0)
(1.00511 -0.0189795 0)
(0.999386 -0.0255041 0)
(0.992125 -0.027846 0)
(0.985206 -0.0232227 0)
(0.979198 -0.0274883 0)
(0.971939 -0.0176156 0)
(0.974527 -0.0131002 0)
(0.978267 -0.00692522 0)
(0.998305 -0.00649335 0)
(0.995637 0.00953237 0)
(1.00839 0.00275346 0)
(1.01033 -0.00468899 0)
(0.995185 -0.0217047 0)
(0.977777 -0.00848171 0)
(0.991812 0.010234 0)
(0.998647 0.00831541 0)
(1.01459 0.0229497 0)
(1.01871 -0.00765536 0)
(1.01517 0.00271414 0)
(1.01463 -0.020535 0)
(1.00475 -0.019137 0)
(0.998785 -0.0244847 0)
(0.992793 -0.0276593 0)
(0.985143 -0.0225021 0)
(0.979991 -0.0267582 0)
(0.972141 -0.0176809 0)
(0.972819 -0.0127042 0)
(0.974933 -0.00759177 0)
(0.998881 -0.0063666 0)
(0.995015 0.00927874 0)
(1.0076 0.00265251 0)
(1.01 -0.00459662 0)
(0.996318 -0.0210147 0)
(0.978562 -0.00848683 0)
(0.990456 0.00986381 0)
(0.997008 0.00788705 0)
(1.01125 0.0221584 0)
(1.01719 -0.00714203 0)
(1.01353 0.00212776 0)
(1.01367 -0.0195016 0)
(1.00459 -0.0192999 0)
(0.998271 -0.0234793 0)
(0.993282 -0.0274295 0)
(0.985151 -0.0218413 0)
(0.980541 -0.0259031 0)
(0.972695 -0.0176998 0)
(0.972031 -0.0121673 0)
(0.973192 -0.00796525 0)
(0.999238 -0.00623071 0)
(0.994643 0.00902243 0)
(1.00695 0.00255278 0)
(1.00967 -0.00453675 0)
(0.997088 -0.0203024 0)
(0.979252 -0.00845213 0)
(0.989377 0.00952929 0)
(0.995697 0.0074778 0)
(1.00877 0.0213205 0)
(1.01587 -0.00664044 0)
(1.01243 0.00149681 0)
(1.01279 -0.018474 0)
(1.00452 -0.0194575 0)
(0.997869 -0.0224919 0)
(0.993628 -0.027128 0)
(0.985256 -0.0212562 0)
(0.980914 -0.0249187 0)
(0.973395 -0.0177173 0)
(0.971852 -0.0115802 0)
(0.972504 -0.00807813 0)
(0.999434 -0.00608628 0)
(0.994482 0.00875935 0)
(1.00642 0.00245913 0)
(1.00932 -0.00450319 0)
(0.997543 -0.0195697 0)
(0.979909 -0.00839001 0)
(0.988689 0.00922087 0)
(0.994852 0.00708201 0)
(1.00702 0.0204364 0)
(1.0148 -0.00614372 0)
(1.01167 0.00083044 0)
(1.01198 -0.0174446 0)
(1.00447 -0.0196021 0)
(0.997551 -0.0215339 0)
(0.993869 -0.0267332 0)
(0.985445 -0.0207676 0)
(0.981197 -0.0238111 0)
(0.97416 -0.0177236 0)
(0.972067 -0.0110272 0)
(0.972429 -0.00799268 0)
(0.999523 -0.00593365 0)
(0.994474 0.0084861 0)
(1.00597 0.00237589 0)
(1.00895 -0.00449127 0)
(0.997759 -0.0188172 0)
(0.980556 -0.00831189 0)
(0.988363 0.0089299 0)
(0.994442 0.00669787 0)
(1.00583 0.0195078 0)
(1.01394 -0.00564921 0)
(1.01111 0.000140525 0)
(1.01122 -0.0164244 0)
(1.00441 -0.0197106 0)
(0.997288 -0.0206283 0)
(0.994035 -0.0262195 0)
(0.9857 -0.0203791 0)
(0.981449 -0.0226302 0)
(0.974968 -0.0176631 0)
(0.972545 -0.0105775 0)
(0.972706 -0.00775239 0)
(0.99955 -0.00577302 0)
(0.994564 0.00819996 0)
(1.0056 0.00230501 0)
(1.00857 -0.0044963 0)
(0.997816 -0.0180477 0)
(0.981197 -0.0082208 0)
(0.988316 0.00863923 0)
(0.994365 0.00632833 0)
(1.00502 0.0185445 0)
(1.01322 -0.00514794 0)
(1.01066 -0.000562629 0)
(1.0105 -0.0154219 0)
(1.0043 -0.0197634 0)
(0.997064 -0.0197922 0)
(0.994141 -0.0255779 0)
(0.986011 -0.0200813 0)
(0.981696 -0.0214145 0)
(0.975805 -0.0175134 0)
(0.973214 -0.0102526 0)
(0.973195 -0.00739603 0)
(0.99955 -0.00560514 0)
(0.994705 0.00790098 0)
(1.00529 0.00224692 0)
(1.00818 -0.0045137 0)
(0.997787 -0.0172648 0)
(0.981835 -0.0081248 0)
(0.98846 0.0083467 0)
(0.994509 0.00597135 0)
(1.00447 0.0175468 0)
(1.01259 -0.00464029 0)
(1.01025 -0.00126471 0)
(1.0098 -0.0144446 0)
(1.00415 -0.0197522 0)
(0.996871 -0.0190286 0)
(0.994195 -0.0248202 0)
(0.98637 -0.0198514 0)
(0.981952 -0.0202065 0)
(0.976651 -0.0172385 0)
(0.974021 -0.0100626 0)
(0.973816 -0.00699297 0)
(0.99955 -0.0054302 0)
(0.994861 0.0075873 0)
(1.00502 0.00220509 0)
(1.00778 -0.00454137 0)
(0.99773 -0.0164703 0)
(0.982469 -0.00802394 0)
(0.988722 0.00804547 0)
(0.994775 0.00563009 0)
(1.00406 0.016516 0)
(1.012 -0.00412821 0)
(1.00986 -0.00195109 0)
(1.00909 -0.0135089 0)
(1.00395 -0.0196569 0)
(0.996707 -0.0183523 0)
(0.994202 -0.0239476 0)
(0.986771 -0.0196631 0)
(0.982228 -0.0190478 0)
(0.977482 -0.0168213 0)
(0.974918 -0.00999553 0)
(0.974519 -0.00659945 0)
(0.999565 -0.00524805 0)
(0.995008 0.00725691 0)
(1.00478 0.00217927 0)
(1.00739 -0.00457601 0)
(0.997682 -0.0156675 0)
(0.9831 -0.00791823 0)
(0.989044 0.00772119 0)
(0.995091 0.00531043 0)
(1.00372 0.0154642 0)
(1.0114 -0.00361456 0)
(1.00947 -0.00261062 0)
(1.00838 -0.0126238 0)
(1.00371 -0.0194634 0)
(0.996571 -0.0177758 0)
(0.994169 -0.0229694 0)
(0.987201 -0.0194808 0)
(0.982535 -0.0179819 0)
(0.978281 -0.0162646 0)
(0.975869 -0.0100017 0)
(0.975278 -0.00624539 0)
(0.999602 -0.00505807 0)
(0.995136 0.00691085 0)
(1.00456 0.0021664 0)
(1.00701 -0.00461525 0)
(0.997662 -0.0148623 0)
(0.98373 -0.0078023 0)
(0.989392 0.00737593 0)
(0.995408 0.00501296 0)
(1.00341 0.0143989 0)
(1.01079 -0.0031109 0)
(1.00908 -0.00322573 0)
(1.00767 -0.0118021 0)
(1.00345 -0.0191655 0)
(0.996466 -0.0172902 0)
(0.99411 -0.0219218 0)
(0.987648 -0.0192601 0)
(0.982883 -0.017044 0)
(0.979037 -0.0155968 0)
(0.976845 -0.0100223 0)
(0.976078 -0.00597151 0)
(0.999658 -0.00486195 0)
(0.995242 0.0065513 0)
(1.00436 0.00216705 0)
(1.00663 -0.00465721 0)
(0.997671 -0.0140586 0)
(0.984361 -0.00767086 0)
(0.989746 0.00700748 0)
(0.995706 0.00473801 0)
(1.00311 0.0133206 0)
(1.01017 -0.00262022 0)
(1.0087 -0.00379089 0)
(1.00696 -0.0110534 0)
(1.00317 -0.0187581 0)
(0.996397 -0.0168801 0)
(0.994038 -0.0208371 0)
(0.988098 -0.0189775 0)
(0.983277 -0.0162358 0)
(0.979752 -0.0148625 0)
(0.97782 -0.0100139 0)
(0.976915 -0.00579507 0)
(0.999724 -0.0046591 0)
(0.995332 0.00617828 0)
(1.00417 0.0021772 0)
(1.00626 -0.00469814 0)
(0.997701 -0.0132638 0)
(0.984997 -0.00751886 0)
(0.990106 0.00661116 0)
(0.99598 0.00448284 0)
(1.00282 0.0122397 0)
(1.00953 -0.00215465 0)
(1.00833 -0.00429024 0)
(1.00628 -0.0103915 0)
(1.00288 -0.0182403 0)
(0.996366 -0.0165332 0)
(0.993968 -0.0197392 0)
(0.988543 -0.0186183 0)
(0.983721 -0.0155508 0)
(0.980428 -0.0140891 0)
(0.978777 -0.00995097 0)
(0.97778 -0.00571883 0)
(0.999792 -0.00444842 0)
(0.995418 0.0057908 0)
(1.00398 0.00219526 0)
(1.00591 -0.00473407 0)
(0.99774 -0.0124811 0)
(0.985637 -0.00733626 0)
(0.990475 0.00618876 0)
(0.996231 0.00424129 0)
(1.00254 0.0111679 0)
(1.00888 -0.00172396 0)
(1.00797 -0.00471421 0)
(1.00563 -0.00981399 0)
(1.00258 -0.0176195 0)
(0.996375 -0.0162373 0)
(0.993915 -0.0186595 0)
(0.988974 -0.0181588 0)
(0.984217 -0.0149854 0)
(0.981077 -0.0133183 0)
(0.979696 -0.00982218 0)
(0.97867 -0.0057209 0)
(0.999856 -0.00423194 0)
(0.995508 0.00539381 0)
(1.00378 0.00221827 0)
(1.00557 -0.00476301 0)
(0.997779 -0.0117131 0)
(0.986281 -0.00712274 0)
(0.990858 0.00574252 0)
(0.996465 0.0040212 0)
(1.00229 0.0101055 0)
(1.00823 -0.0013385 0)
(1.00761 -0.00506253 0)
(1.00501 -0.00931501 0)
(1.00228 -0.0169154 0)
(0.996421 -0.0159585 0)
(0.993891 -0.0176288 0)
(0.989385 -0.0175938 0)
(0.984762 -0.0145083 0)
(0.981713 -0.0125948 0)
(0.980575 -0.0096093 0)
(0.979579 -0.00576011 0)
(0.999912 -0.00400992 0)
(0.995611 0.00499054 0)
(1.00358 0.00223862 0)
(1.00525 -0.00478042 0)
(0.997814 -0.0109748 0)
(0.986923 -0.00687774 0)
(0.991258 0.00527049 0)
(0.996684 0.0038141 0)
(1.00207 0.00906446 0)
(1.00758 -0.00101267 0)
(1.00726 -0.00532348 0)
(1.00442 -0.00889434 0)
(1.00197 -0.0161399 0)
(0.996499 -0.015667 0)
(0.993904 -0.0166666 0)
(0.989774 -0.0169327 0)
(0.985347 -0.0140752 0)
(0.982354 -0.0119416 0)
(0.981414 -0.00931554 0)
(0.980493 -0.00581911 0)
(0.999962 -0.00378303 0)
(0.995733 0.00458097 0)
(1.00337 0.00226006 0)
(1.00493 -0.0047799 0)
(0.997846 -0.0102673 0)
(0.98756 -0.00660242 0)
(0.991674 0.00477782 0)
(0.99689 0.00360511 0)
(1.00186 0.00806215 0)
(1.00693 -0.000754001 0)
(1.0069 -0.00549409 0)
(1.00388 -0.00854365 0)
(1.00165 -0.0153056 0)
(0.996599 -0.0153474 0)
(0.993958 -0.0157786 0)
(0.990141 -0.0161932 0)
(0.98596 -0.0136505 0)
(0.983009 -0.0113613 0)
(0.982218 -0.00897551 0)
(0.981402 -0.00586894 0)
(1 -0.00355181 0)
(0.995874 0.00416892 0)
(1.00315 0.00227686 0)
(1.00462 -0.00476106 0)
(0.99788 -0.00959165 0)
(0.988187 -0.00629989 0)
(0.992101 0.00427639 0)
(0.997083 0.00339947 0)
(1.00167 0.00711171 0)
(1.00629 -0.000562217 0)
(1.00653 -0.00559298 0)
(1.00337 -0.00824545 0)
(1.00131 -0.0144394 0)
(0.99671 -0.0149795 0)
(0.994057 -0.0149774 0)
(0.990489 -0.0153943 0)
(0.986587 -0.0132124 0)
(0.983686 -0.0108536 0)
(0.982994 -0.00861327 0)
(0.982296 -0.00587943 0)
(1.00004 -0.00331857 0)
(0.996032 0.00375736 0)
(1.00293 0.00228269 0)
(1.00432 -0.00471713 0)
(0.997919 -0.00895467 0)
(0.988802 -0.00597377 0)
(0.992537 0.00377228 0)
(0.997263 0.00318827 0)
(1.0015 0.00621879 0)
(1.00566 -0.000426861 0)
(1.00614 -0.00563152 0)
(1.0029 -0.00799305 0)
(1.00096 -0.0135673 0)
(0.99682 -0.0145469 0)
(0.9942 -0.0142629 0)
(0.990826 -0.0145693 0)
(0.987214 -0.0127499 0)
(0.984383 -0.0104063 0)
(0.983754 -0.00824887 0)
(0.983169 -0.00584009 0)
(1.00008 -0.00308402 0)
(0.996205 0.00334982 0)
(1.00271 0.0022787 0)
(1.00402 -0.00464814 0)
(0.997969 -0.00835682 0)
(0.989402 -0.00562979 0)
(0.992977 0.00327176 0)
(0.997433 0.00296603 0)
(1.00134 0.00538085 0)
(1.00505 -0.000352933 0)
(1.00575 -0.00561101 0)
(1.00247 -0.0077787 0)
(1.00061 -0.0127061 0)
(0.996921 -0.0140468 0)
(0.994384 -0.0136084 0)
(0.991156 -0.0137513 0)
(0.98783 -0.0122429 0)
(0.9851 -0.0100012 0)
(0.984504 -0.0079005 0)
(0.984014 -0.00575253 0)
(1.00011 -0.00285031 0)
(0.996389 0.00295073 0)
(1.00249 0.0022632 0)
(1.00373 -0.00455581 0)
(0.998031 -0.00780136 0)
(0.989985 -0.00526852 0)
(0.993417 0.00278183 0)
(0.997593 0.00272533 0)
(1.00119 0.00460459 0)
(1.00446 -0.000336189 0)
(1.00534 -0.00553297 0)
(1.00207 -0.00759549 0)
(1.00027 -0.0118718 0)
(0.997006 -0.0134762 0)
(0.994601 -0.0129968 0)
(0.99149 -0.0129545 0)
(0.988427 -0.011687 0)
(0.985824 -0.00961166 0)
(0.985252 -0.0075841 0)
(0.984832 -0.00562347 0)
(1.00014 -0.00261835 0)
(0.996581 0.00256265 0)
(1.00227 0.00223574 0)
(1.00344 -0.00443936 0)
(0.998107 -0.00728733 0)
(0.990548 -0.00489659 0)
(0.993852 0.00230939 0)
(0.997746 0.00246624 0)
(1.00105 0.00389555 0)
(1.0039 -0.000357215 0)
(1.00492 -0.00541622 0)
(1.00172 -0.0074298 0)
(0.999941 -0.0110797 0)
(0.997073 -0.0128499 0)
(0.994844 -0.0124148 0)
(0.991832 -0.0121998 0)
(0.989005 -0.011098 0)
(0.986544 -0.0092252 0)
(0.985998 -0.00729732 0)
(0.985625 -0.00546933 0)
(1.00016 -0.00238995 0)
(0.996778 0.00218778 0)
(1.00206 0.00219859 0)
(1.00316 -0.00430207 0)
(0.998198 -0.00681455 0)
(0.991091 -0.00452369 0)
(0.994279 0.00187002 0)
(0.997896 0.0021856 0)
(1.00093 0.0032526 0)
(1.00337 -0.000411423 0)
(1.00451 -0.00527056 0)
(1.0014 -0.0072638 0)
(0.999635 -0.0103443 0)
(0.997122 -0.0121807 0)
(0.995106 -0.0118492 0)
(0.992191 -0.0114917 0)
(0.989562 -0.0104948 0)
(0.98725 -0.00883121 0)
(0.986744 -0.00702427 0)
(0.9864 -0.00531035 0)
(1.00019 -0.00216671 0)
(0.99698 0.00182855 0)
(1.00187 0.0021471 0)
(1.00289 -0.00413808 0)
(0.998304 -0.00638605 0)
(0.991615 -0.0041559 0)
(0.994694 0.00147049 0)
(0.998042 0.00188145 0)
(1.00082 0.00266391 0)
(1.00286 -0.000490092 0)
(1.00409 -0.00509418 0)
(1.00111 -0.00709066 0)
(0.99936 -0.00966064 0)
(0.997156 -0.0114828 0)
(0.995379 -0.0112901 0)
(0.992567 -0.0108201 0)
(0.990104 -0.00989152 0)
(0.987939 -0.00841604 0)
(0.987482 -0.00675668 0)
(0.987161 -0.00516964 0)
(1.00021 -0.00195013 0)
(0.997184 0.0014941 0)
(1.00168 0.00207386 0)
(1.00263 -0.00394983 0)
(0.998423 -0.00599627 0)
(0.992121 -0.00379809 0)
(0.995092 0.0011048 0)
(0.998185 0.00156389 0)
(1.00072 0.00212172 0)
(1.0024 -0.00058331 0)
(1.00367 -0.00489439 0)
(1.00086 -0.00690774 0)
(0.999119 -0.00902958 0)
(0.997176 -0.0107738 0)
(0.995657 -0.0107352 0)
(0.992963 -0.0101954 0)
(0.990636 -0.00928817 0)
(0.988604 -0.0079777 0)
(0.988201 -0.00648791 0)
(0.987908 -0.00503571 0)
(1.00023 -0.0017437 0)
(0.99739 0.00118394 0)
(1.00151 0.00198283 0)
(1.00237 -0.00373747 0)
(0.998554 -0.00563513 0)
(0.992609 -0.0034605 0)
(0.995472 0.000787207 0)
(0.998325 0.00123498 0)
(1.00064 0.0016285 0)
(1.00197 -0.000684482 0)
(1.00326 -0.00468098 0)
(1.00063 -0.00670796 0)
(0.998917 -0.00845046 0)
(0.997188 -0.0100651 0)
(0.995931 -0.0101778 0)
(0.993382 -0.0096182 0)
(0.991168 -0.00870757 0)
(0.989246 -0.00752396 0)
(0.988898 -0.00621016 0)
(0.988643 -0.00489122 0)
(1.00024 -0.00154777 0)
(0.997595 0.000903813 0)
(1.00135 0.00186222 0)
(1.00211 -0.00349932 0)
(0.998694 -0.00530468 0)
(0.993081 -0.00315285 0)
(0.995831 0.000522898 0)
(0.998462 0.000901222 0)
(1.00059 0.00116757 0)
(1.00158 -0.000803699 0)
(1.00287 -0.00445592 0)
(1.00043 -0.00648157 0)
(0.998755 -0.00790939 0)
(0.997195 -0.00936988 0)
(0.996195 -0.00961736 0)
(0.993816 -0.00908102 0)
(0.991704 -0.00816268 0)
(0.989867 -0.00707289 0)
(0.989568 -0.00591424 0)
(0.98936 -0.00473718 0)
(1.00025 -0.00136449 0)
(0.997798 0.000661104 0)
(1.00121 0.00170526 0)
(1.00187 -0.00323626 0)
(0.99884 -0.00499916 0)
(0.993541 -0.00287878 0)
(0.996167 0.00030457 0)
(0.998593 0.000581116 0)
(1.00054 0.000741365 0)
(1.00123 -0.000940973 0)
(1.00248 -0.00422318 0)
(1.00026 -0.00622503 0)
(0.998633 -0.00740313 0)
(0.997201 -0.00869594 0)
(0.996444 -0.00905327 0)
(0.994261 -0.00857981 0)
(0.992249 -0.00765185 0)
(0.990474 -0.00662853 0)
(0.990211 -0.00559961 0)
(0.990047 -0.00456127 0)
(1.00026 -0.00119546 0)
(0.997994 0.000452956 0)
(1.00109 0.00152598 0)
(1.00163 -0.0029555 0)
(0.998987 -0.00470326 0)
(0.993989 -0.00264858 0)
(0.996483 0.000122373 0)
(0.998718 0.000277866 0)
(1.00052 0.00034717 0)
(1.00092 -0.00108597 0)
(1.00213 -0.0040057 0)
(1.0001 -0.00593967 0)
(0.998549 -0.00692011 0)
(0.997212 -0.00804482 0)
(0.996673 -0.00848825 0)
(0.994709 -0.008109 0)
(0.992805 -0.00718777 0)
(0.991072 -0.00619545 0)
(0.99083 -0.00529195 0)
(0.990703 -0.0043667 0)
(1.00027 -0.00104351 0)
(0.998182 0.000287112 0)
(1.00099 0.00132786 0)
(1.00141 -0.00267801 0)
(0.999131 -0.00440945 0)
(0.994423 -0.00245962 0)
(0.996778 -3.20518e-05 0)
(0.998834 1.11355e-05 0)
(1.00051 -1.64156e-05 0)
(1.00066 -0.0012268 0)
(1.0018 -0.00381145 0)
(0.999967 -0.00564467 0)
(0.9985 -0.00646345 0)
(0.997229 -0.00742039 0)
(0.99688 -0.00792493 0)
(0.995152 -0.00765888 0)
(0.993377 -0.00677663 0)
(0.991666 -0.00578674 0)
(0.991426 -0.00498564 0)
(0.991334 -0.00417234 0)
(1.00028 -0.000906554 0)
(0.998358 0.00015727 0)
(1.0009 0.00111708 0)
(1.00119 -0.00242111 0)
(0.999268 -0.00410197 0)
(0.994843 -0.00230294 0)
(0.997055 -0.000160133 0)
(0.998941 -0.00020772 0)
(1.00051 -0.000330731 0)
(1.00045 -0.00134873 0)
(1.0015 -0.00362374 0)
(0.999856 -0.00534758 0)
(0.998487 -0.0060346 0)
(0.997259 -0.00682719 0)
(0.997066 -0.00735903 0)
(0.995581 -0.00721788 0)
(0.993959 -0.00641789 0)
(0.992267 -0.0054221 0)
(0.992 -0.00467621 0)
(0.991942 -0.00399465 0)
(1.00028 -0.000785146 0)
(0.998521 5.66008e-05 0)
(1.00082 0.000913424 0)
(1.001 -0.00219995 0)
(0.999398 -0.00377908 0)
(0.995246 -0.00215946 0)
(0.997316 -0.000271891 0)
(0.999038 -0.000395664 0)
(1.00053 -0.000581221 0)
(1.00027 -0.00144801 0)
(1.00123 -0.00343847 0)
(0.999766 -0.00505469 0)
(0.998508 -0.00564985 0)
(0.997307 -0.0062769 0)
(0.997233 -0.00680319 0)
(0.995984 -0.00677319 0)
(0.994545 -0.00609197 0)
(0.992885 -0.00511176 0)
(0.992555 -0.0043755 0)
(0.992527 -0.0038162 0)
(1.00028 -0.000677889 0)
(0.99867 -2.28397e-05 0)
(1.00075 0.000724176 0)
(1.00082 -0.00201823 0)
(0.999523 -0.003449 0)
(0.995629 -0.00201692 0)
(0.99756 -0.000373286 0)
(0.999128 -0.000551188 0)
(1.00055 -0.000766711 0)
(1.00012 -0.00151681 0)
(1.00099 -0.0032526 0)
(0.999691 -0.00478238 0)
(0.99856 -0.00531672 0)
(0.997382 -0.00578624 0)
(0.997391 -0.00627323 0)
(0.996359 -0.00632094 0)
(0.995121 -0.00577338 0)
(0.993521 -0.00485836 0)
(0.993107 -0.00409355 0)
(0.993083 -0.00361723 0)
(1.00027 -0.000581506 0)
(0.998805 -8.85562e-05 0)
(1.00069 0.000559336 0)
(1.00066 -0.00187921 0)
(0.999644 -0.00313035 0)
(0.995989 -0.00186518 0)
(0.997787 -0.000461534 0)
(0.999214 -0.000691606 0)
(1.00058 -0.000919974 0)
(1.00001 -0.00155613 0)
(1.00077 -0.00306662 0)
(0.999627 -0.00451906 0)
(0.998641 -0.00502056 0)
(0.997486 -0.00535233 0)
(0.997548 -0.00577095 0)
(0.996708 -0.00587232 0)
(0.995669 -0.00545002 0)
(0.994171 -0.00464314 0)
(0.993675 -0.00385938 0)
(0.993603 -0.00340514 0)
(1.00027 -0.00049686 0)
(0.998927 -0.000141082 0)
(1.00064 0.000422145 0)
(1.00052 -0.00176567 0)
(0.999766 -0.0028432 0)
(0.996327 -0.00170104 0)
(0.997992 -0.000524572 0)
(0.999293 -0.000817255 0)
(1.00063 -0.00105602 0)
(0.999932 -0.00157166 0)
(1.00057 -0.00288656 0)
(0.999568 -0.00424867 0)
(0.998743 -0.00475455 0)
(0.997623 -0.00496994 0)
(0.997709 -0.00530202 0)
(0.997031 -0.00544235 0)
(0.996183 -0.00511868 0)
(0.994813 -0.00443117 0)
(0.994264 -0.00368387 0)
(0.994104 -0.00319367 0)
(1.00026 -0.000420316 0)
(0.999037 -0.000187765 0)
(1.00058 0.000306858 0)
(1.0004 -0.00166104 0)
(0.99989 -0.00259115 0)
(0.996646 -0.00153084 0)
(0.998174 -0.000555905 0)
(0.999363 -0.000918541 0)
(1.00068 -0.00117386 0)
(0.99988 -0.0015765 0)
(1.0004 -0.00269272 0)
(0.99951 -0.00396777 0)
(0.998857 -0.00449482 0)
(0.997792 -0.00464508 0)
(0.99788 -0.00488078 0)
(0.997335 -0.00503407 0)
(0.996666 -0.00479589 0)
(0.99543 -0.00421223 0)
(0.994869 -0.00354697 0)
(0.994607 -0.00301647 0)
(1.00025 -0.000350896 0)
(0.999136 -0.000231859 0)
(1.00053 0.000212622 0)
(1.00029 -0.00155962 0)
(1.00002 -0.00238275 0)
(0.996949 -0.00136631 0)
(0.998332 -0.000541385 0)
(0.999421 -0.000987819 0)
(1.00074 -0.00128946 0)
(0.999863 -0.00159292 0)
(1.00026 -0.00249101 0)
(0.999449 -0.00367015 0)
(0.998968 -0.00422734 0)
(0.997984 -0.00435749 0)
(0.998068 -0.0045047 0)
(0.997623 -0.00463919 0)
(0.997117 -0.00448107 0)
(0.996014 -0.00398381 0)
(0.995473 -0.00341361 0)
(0.995125 -0.00289154 0)
(1.00024 -0.000287116 0)
(0.999226 -0.00027634 0)
(1.00048 0.00013679 0)
(1.00018 -0.0014502 0)
(1.00015 -0.00221555 0)
(0.997246 -0.00123249 0)
(0.998471 -0.000477815 0)
(0.999456 -0.00100963 0)
(1.00081 -0.00139583 0)
(0.999883 -0.00161949 0)
(1.00015 -0.00231123 0)
(0.999385 -0.00335324 0)
(0.999069 -0.00394799 0)
(0.998189 -0.00409225 0)
(0.998274 -0.00418038 0)
(0.997899 -0.00427552 0)
(0.997537 -0.00417402 0)
(0.996564 -0.00375775 0)
(0.996052 -0.00326943 0)
(0.995656 -0.00280027 0)
(1.00022 -0.0002266 0)
(0.999306 -0.000324908 0)
(1.00044 7.61751e-05 0)
(1.00009 -0.00133333 0)
(1.00028 -0.00207883 0)
(0.997543 -0.00113015 0)
(0.998599 -0.00039257 0)
(0.999466 -0.000978721 0)
(1.00086 -0.00147335 0)
(0.999934 -0.00166151 0)
(1.00008 -0.00216334 0)
(0.999328 -0.00303082 0)
(0.999149 -0.00364411 0)
(0.998391 -0.00383369 0)
(0.998496 -0.00390265 0)
(0.998174 -0.00395349 0)
(0.997929 -0.00388656 0)
(0.997082 -0.00354622 0)
(0.996602 -0.00311947 0)
(0.996183 -0.00271782 0)
(1.00021 -0.000169024 0)
(0.99938 -0.000375631 0)
(1.00042 2.60951e-05 0)
(0.999995 -0.00120854 0)
(1.00041 -0.00195567 0)
(0.997846 -0.00105576 0)
(0.998725 -0.000298558 0)
(0.999453 -0.000894031 0)
(1.0009 -0.00150715 0)
(1.00001 -0.00172666 0)
(1.00006 -0.00205213 0)
(0.999289 -0.00273826 0)
(0.999209 -0.00331704 0)
(0.998577 -0.00356243 0)
(0.998723 -0.00364912 0)
(0.998448 -0.00367316 0)
(0.998297 -0.00362275 0)
(0.99757 -0.00334743 0)
(0.997121 -0.00296879 0)
(0.996687 -0.00262143 0)
(1.00019 -0.000116527 0)
(0.999447 -0.000424556 0)
(1.0004 -1.64976e-05 0)
(0.99991 -0.0010711 0)
(1.00053 -0.00183323 0)
(0.998156 -0.00101903 0)
(0.998859 -0.000207969 0)
(0.999419 -0.000769339 0)
(1.00091 -0.00148308 0)
(1.0001 -0.00177851 0)
(1.00009 -0.00198928 0)
(0.999284 -0.00248779 0)
(0.999261 -0.00299498 0)
(0.998737 -0.00327951 0)
(0.998941 -0.00340783 0)
(0.99872 -0.00343326 0)
(0.998645 -0.0033862 0)
(0.998033 -0.0031653 0)
(0.997621 -0.00283722 0)
(0.997159 -0.00251144 0)
(1.00018 -6.57861e-05 0)
(0.99951 -0.000468313 0)
(1.0004 -5.96505e-05 0)
(0.999833 -0.000906694 0)
(1.00063 -0.00169811 0)
(0.998472 -0.00101786 0)
(0.999014 -0.000144362 0)
(0.999377 -0.000632411 0)
(1.00089 -0.0014131 0)
(1.00019 -0.00179053 0)
(1.00017 -0.00197077 0)
(0.999322 -0.00228197 0)
(0.999316 -0.00269964 0)
(0.998874 -0.00298304 0)
(0.999138 -0.00316202 0)
(0.998984 -0.00320955 0)
(0.998978 -0.00317675 0)
(0.998464 -0.00299326 0)
(0.998105 -0.00273184 0)
(0.997607 -0.00240558 0)
(1.00016 -2.4375e-05 0)
(0.999567 -0.000476819 0)
(1.00042 -0.000103493 0)
(0.999768 -0.00072789 0)
(1.00072 -0.00153839 0)
(0.998789 -0.00104134 0)
(0.999194 -0.000128462 0)
(0.999334 -0.0004971 0)
(1.00085 -0.00130415 0)
(1.00026 -0.00176044 0)
(1.00028 -0.00195759 0)
(0.999409 -0.00214596 0)
(0.99939 -0.00244082 0)
(0.998996 -0.00269442 0)
(0.999308 -0.00290656 0)
(0.999227 -0.00299091 0)
(0.999292 -0.0029938 0)
(0.998862 -0.00283308 0)
(0.99857 -0.00264352 0)
(0.998046 -0.00232573 0)
(1.00015 8.5519e-06 0)
(0.999617 -0.000453229 0)
(1.00046 -0.000142005 0)
(0.999719 -0.000563791 0)
(1.00078 -0.00133779 0)
(0.999093 -0.00107213 0)
(0.999404 -0.000178664 0)
(0.999308 -0.000376956 0)
(1.00078 -0.00115933 0)
(1.00031 -0.00169359 0)
(1.00039 -0.00191798 0)
(0.999538 -0.0020618 0)
(0.999498 -0.00223922 0)
(0.999116 -0.00243066 0)
(0.999456 -0.00265413 0)
(0.999439 -0.00277048 0)
(0.999584 -0.00282662 0)
(0.999229 -0.00268919 0)
(0.999004 -0.00255489 0)
(0.998483 -0.00227794 0)
(1.00014 3.74334e-05 0)
(0.999658 -0.000414954 0)
(1.0005 -0.000170443 0)
(0.999693 -0.000429153 0)
(1.00081 -0.00110259 0)
(0.999365 -0.00107455 0)
(0.999641 -0.000279925 0)
(0.999315 -0.000289608 0)
(1.0007 -0.000999782 0)
(1.00034 -0.00158613 0)
(1.0005 -0.00185777 0)
(0.999689 -0.00197771 0)
(0.999645 -0.00210538 0)
(0.999249 -0.00220553 0)
(0.999588 -0.00241978 0)
(0.999619 -0.00254845 0)
(0.999844 -0.00265943 0)
(0.999569 -0.00256296 0)
(0.999399 -0.00246439 0)
(0.99891 -0.00224434 0)
(1.00013 5.49601e-05 0)
(0.99969 -0.000355258 0)
(1.00056 -0.000184742 0)
(0.999692 -0.000324401 0)
(1.00082 -0.000866213 0)
(0.999594 -0.00102096 0)
(0.999895 -0.000398267 0)
(0.999364 -0.000247765 0)
(1.00062 -0.000840489 0)
(1.00034 -0.0014374 0)
(1.0006 -0.00178024 0)
(0.999845 -0.00188826 0)
(0.999815 -0.00200286 0)
(0.999409 -0.00203609 0)