/*--------------------------------*- C++ -*----------------------------------*\
| =========                 |                                                 |
| \\      /  F ield         | OpenFOAM: The Open Source CFD Toolbox           |
|  \\    /   O peration     | Version:  2506                                  |
|   \\  /    A nd           | Website:  www.openfoam.com                      |
|    \\/     M anipulation  |                                                 |
\*---------------------------------------------------------------------------*/
FoamFile
{
    version     2.0;
    format      ascii;
    arch        "LSB;label=32;scalar=64";
    class       volScalarField;
    location    "8.6";
    object      p;
}
// * * * * * * * * * * * * * * * * * * * * * * * * * * * * * * * * * * * * * //

dimensions      [0 2 -2 0 0 0 0];

internalField   nonuniform List<scalar> 
9600
(
1.05484e-10
-0.000613579
-0.000597863
0.00699793
-0.00343732
0.000213869
0.00465741
0.00123001
-0.001825
-0.00224418
-0.00298837
-0.00283046
-0.00563414
-0.00585513
-0.00557037
-0.00501531
-0.00566977
-0.00560012
-0.00486936
-0.00344649
-1.49541e-06
-0.000593004
-0.000593428
0.00685305
-0.00342216
0.000253132
0.00463802
0.00123139
-0.00182171
-0.00226402
-0.00294846
-0.00284448
-0.00561565
-0.00585229
-0.00557261
-0.00500992
-0.00566772
-0.00561311
-0.00484868
-0.00358489
-1.03195e-06
-0.000571154
-0.00060544
0.00670751
-0.00339464
0.000317007
0.00459828
0.00124276
-0.00182471
-0.00228453
-0.00290906
-0.00286846
-0.00558585
-0.00585912
-0.00556288
-0.00500578
-0.0056674
-0.00562747
-0.00484439
-0.00378097
1.31698e-06
-0.000552778
-0.000631137
0.00653925
-0.00335294
0.000377188
0.00454829
0.00125607
-0.00183461
-0.00229873
-0.00286954
-0.00290213
-0.00555247
-0.00586862
-0.0055452
-0.00500818
-0.00567341
-0.00564216
-0.0048646
-0.00398173
5.12928e-06
-0.000537024
-0.000666986
0.00635115
-0.00329038
0.000427153
0.00448692
0.00126782
-0.0018514
-0.00230736
-0.0028303
-0.00294591
-0.00551211
-0.00587976
-0.00552867
-0.00501651
-0.00568457
-0.00565976
-0.00490094
-0.00417703
1.01561e-05
-0.000523747
-0.000710288
0.00615567
-0.0031998
0.000457428
0.00440937
0.00127924
-0.00187415
-0.00231242
-0.00279253
-0.00299633
-0.0054625
-0.0058944
-0.0055145
-0.00502771
-0.00569909
-0.00567691
-0.00494952
-0.00436829
1.58632e-05
-0.000512995
-0.000756583
0.00596751
-0.00307945
0.000455009
0.00431809
0.00129137
-0.00190123
-0.00231656
-0.00275723
-0.00304876
-0.00540624
-0.00591059
-0.00549957
-0.00504006
-0.00571434
-0.00569265
-0.00501284
-0.00455468
2.15716e-05
-0.000504355
-0.000800941
0.00579617
-0.00293561
0.000419243
0.00422113
0.00130354
-0.00193101
-0.00232221
-0.00272404
-0.00310074
-0.00534651
-0.00592405
-0.00548308
-0.00505138
-0.00572975
-0.00571078
-0.00509069
-0.00473418
2.67304e-05
-0.000496901
-0.000839925
0.00564374
-0.0027788
0.000359996
0.0041257
0.0013144
-0.00196268
-0.00233084
-0.00269186
-0.00315164
-0.00528499
-0.00593281
-0.00546591
-0.00505918
-0.0057484
-0.00573326
-0.00517887
-0.00491
3.13971e-05
-0.000489645
-0.000872262
0.00550699
-0.00261853
0.000288447
0.0040342
0.00132283
-0.00199617
-0.00234291
-0.00265958
-0.00320143
-0.00522346
-0.00593701
-0.00544855
-0.00506279
-0.00577279
-0.00575858
-0.00527453
-0.00508872
3.59444e-05
-0.00048201
-0.000898275
0.00538045
-0.00246074
0.000212245
0.00394485
0.00132816
-0.00203142
-0.00235833
-0.00262631
-0.00325041
-0.00516396
-0.00593685
-0.00543202
-0.00506248
-0.005803
-0.00578623
-0.0053774
-0.00527422
4.08107e-05
-0.000474005
-0.00091889
0.00525864
-0.0023082
0.000134461
0.00385432
0.00133025
-0.002068
-0.00237696
-0.0025916
-0.00329893
-0.00510806
-0.00593245
-0.0054182
-0.00505796
-0.00583843
-0.00581845
-0.00548578
-0.00546613
4.62479e-05
-0.000466015
-0.000934991
0.00513691
-0.00216179
5.56528e-05
0.00376001
0.00132938
-0.00210532
-0.00239872
-0.00255527
-0.00334707
-0.00505693
-0.00592396
-0.00540894
-0.005049
-0.00587879
-0.00585798
-0.00559549
-0.00566298
5.2306e-05
-0.000458542
-0.000947262
0.00501188
-0.00202155
-2.40887e-05
0.00366081
0.00132591
-0.00214296
-0.00242359
-0.0025174
-0.00339464
-0.00501146
-0.00591142
-0.00540569
-0.00503621
-0.0059233
-0.005907
-0.00570253
-0.00586364
5.89201e-05
-0.000452004
-0.000956262
0.00488159
-0.00188698
-0.00010437
0.00355669
0.00132002
-0.00218066
-0.00245158
-0.00247828
-0.00344108
-0.00497229
-0.00589471
-0.00540933
-0.00502094
-0.00597025
-0.00596777
-0.00580486
-0.00606625
6.59935e-05
-0.000446679
-0.000962488
0.00474527
-0.00175733
-0.00018453
0.00344801
0.00131175
-0.00221837
-0.00248275
-0.0024383
-0.00348562
-0.00493994
-0.00587362
-0.00541994
-0.00500504
-0.00601748
-0.00604236
-0.00590221
-0.00626745
7.34423e-05
-0.000442723
-0.000966417
0.00460287
-0.0016319
-0.000263886
0.00333518
0.00130111
-0.00225623
-0.0025171
-0.00239784
-0.00352728
-0.00491487
-0.00584807
-0.00543682
-0.00499063
-0.0060628
-0.00613196
-0.0059955
-0.00646293
8.12001e-05
-0.000440203
-0.00096848
0.0044547
-0.00151022
-0.00034184
0.00321857
0.0012881
-0.00229439
-0.00255458
-0.00235728
-0.00356516
-0.00489739
-0.00581836
-0.00545874
-0.00497967
-0.00610447
-0.00623667
-0.00608644
-0.00664815
8.9197e-05
-0.000439137
-0.000969017
0.0043012
-0.00139214
-0.000417828
0.0030984
0.00127277
-0.00233292
-0.00259526
-0.00231695
-0.00359857
-0.00488776
-0.00578525
-0.00548404
-0.00497356
-0.00614152
-0.00635581
-0.00617726
-0.00681845
9.73519e-05
-0.000439495
-0.000968296
0.00414281
-0.00127769
-0.000491373
0.00297473
0.00125528
-0.0023718
-0.0026394
-0.00227716
-0.00362595
-0.00488607
-0.00574978
-0.00551112
-0.00497344
-0.00617355
-0.00648817
-0.00627041
-0.00696905
0.000105563
-0.000441188
-0.000966549
0.00397995
-0.00116717
-0.000562122
0.00284751
0.00123577
-0.00241094
-0.00268727
-0.00223814
-0.00364867
-0.00489214
-0.0057128
-0.0055389
-0.00498043
-0.00619997
-0.00663221
-0.00636886
-0.00709528
0.000113694
-0.000444083
-0.000963989
0.00381305
-0.00106117
-0.000629753
0.00271672
0.00121436
-0.00245019
-0.00273927
-0.00219994
-0.00366606
-0.00490578
-0.00567487
-0.00556684
-0.00499558
-0.00621973
-0.00678603
-0.00647662
-0.00719356
0.000121574
-0.000448004
-0.000960836
0.00364254
-0.000960349
-0.000693941
0.00258228
0.00119108
-0.00248921
-0.00279605
-0.00216249
-0.00367789
-0.00492706
-0.00563663
-0.00559451
-0.00501994
-0.00623183
-0.00694702
-0.00659876
-0.0072624
0.000128996
-0.000452705
-0.000957362
0.00346882
-0.000865345
-0.00075442
0.00244404
0.00116586
-0.00252745
-0.00285837
-0.00212581
-0.00368344
-0.00495634
-0.00559876
-0.00562099
-0.00505521
-0.00623584
-0.00711046
-0.00674113
-0.00730371
0.000135703
-0.000457868
-0.000953888
0.00329229
-0.000776739
-0.000811
0.00230195
0.00113846
-0.00256413
-0.00292705
-0.00209048
-0.00368187
-0.00499388
-0.00556193
-0.00564488
-0.00510376
-0.00623201
-0.00726873
-0.0069098
-0.00732572
0.000141389
-0.000463147
-0.000950724
0.00311338
-0.000695153
-0.000863541
0.0021561
0.00110846
-0.00259825
-0.00300285
-0.00205758
-0.0036721
-0.0050398
-0.00552722
-0.00566407
-0.00516763
-0.00622265
-0.00741294
-0.00710846
-0.00734345
0.000145723
-0.000468139
-0.000948193
0.00293253
-0.000621177
-0.000912029
0.00200667
0.00107542
-0.00262876
-0.00308629
-0.00202828
-0.00365292
-0.00509435
-0.00549663
-0.00567574
-0.00524747
-0.00621328
-0.00753436
-0.00733416
-0.00737574
0.00014832
-0.000472343
-0.000946699
0.00275012
-0.000555198
-0.000956651
0.0018541
0.00103871
-0.0026548
-0.00317717
-0.00200431
-0.00362308
-0.00515709
-0.00547309
-0.00567712
-0.00534227
-0.00621161
-0.00762563
-0.00757528
-0.007443
0.000148742
-0.00047526
-0.000946583
0.00256657
-0.000497512
-0.000997712
0.00169913
0.000997454
-0.00267586
-0.00327492
-0.00198808
-0.00358131
-0.00522637
-0.00546004
-0.00566608
-0.00544897
-0.00622586
-0.00768373
-0.00781426
-0.00756052
0.000146498
-0.000476344
-0.000948138
0.00238213
-0.000448235
-0.0010356
0.00154271
0.000950822
-0.00269172
-0.00337887
-0.00198207
-0.00352694
-0.00530015
-0.00546113
-0.00564101
-0.00556215
-0.0062637
-0.00771264
-0.00803249
-0.00772893
0.000141068
-0.000475011
-0.000951686
0.00219699
-0.000407187
-0.00107105
0.00138579
0.000898439
-0.00270239
-0.00348812
-0.00198847
-0.00345997
-0.00537638
-0.00548016
-0.00560151
-0.00567413
-0.00633064
-0.00772292
-0.00821291
-0.00793129
0.000131944
-0.00047079
-0.00095736
0.00201135
-0.000374078
-0.00110524
0.00122926
0.000840474
-0.0027084
-0.00360138
-0.00200919
-0.00338148
-0.0054522
-0.0055207
-0.00554947
-0.00577626
-0.00642827
-0.00772878
-0.00834579
-0.00814088
0.000118611
-0.000463211
-0.000965248
0.0018252
-0.000348344
-0.00113935
0.0010735
0.000777166
-0.00271054
-0.00371689
-0.0020459
-0.00329337
-0.00552383
-0.00558569
-0.00548894
-0.00586013
-0.00655384
-0.00774335
-0.0084329
-0.00833298
0.000100477
-0.000451723
-0.000975323
0.0016383
-0.000329153
-0.00117443
0.000918348
0.000709067
-0.00270942
-0.0038332
-0.00210005
-0.00319757
-0.00558713
-0.00567784
-0.00542562
-0.00591765
-0.00670176
-0.0077768
-0.00848317
-0.00848982
7.69425e-05
-0.000435932
-0.000987063
0.00145046
-0.000315556
-0.00121123
0.000763268
0.000637263
-0.00270537
-0.00394976
-0.002173
-0.00309604
-0.0056376
-0.00579923
-0.00536723
-0.00594073
-0.00686443
-0.00783831
-0.00850655
-0.00860293
4.71782e-05
-0.000416237
-0.000999492
0.00126116
-0.000306752
-0.00124953
0.000607125
0.00056252
-0.00269816
-0.0040663
-0.00226614
-0.00299145
-0.00566958
-0.0059501
-0.00532505
-0.00592271
-0.00702958
-0.00793771
-0.00851428
-0.00866843
1.15414e-05
-0.000393196
-0.00101113
0.00106968
-0.000302722
-0.00128877
0.000448297
0.00048505
-0.0026871
-0.00418216
-0.00238116
-0.00288789
-0.00567683
-0.00612762
-0.00531275
-0.00586175
-0.00717795
-0.00808202
-0.00852294
-0.00868422
-3.05561e-05
-0.000367853
-0.00101991
0.000875546
-0.000304083
-0.0013279
0.000285169
0.000404453
-0.00267125
-0.00429599
-0.00251924
-0.00279052
-0.00565404
-0.00632476
-0.00534304
-0.00576516
-0.00728817
-0.00826799
-0.00855576
-0.00865532
-7.91614e-05
-0.000341759
-0.00102283
0.000678181
-0.000312579
-0.00136462
0.000116288
0.000319305
-0.00264934
-0.00440585
-0.00268076
-0.0027052
-0.00559777
-0.00653083
-0.00542558
-0.00564985
-0.00734197
-0.00847755
-0.00863614
-0.00860098
-0.000134162
-0.000316603
-0.00101628
0.000477164
-0.000331325
-0.00139584
-5.86835e-05
0.000227455
-0.00262012
-0.00450913
-0.00286583
-0.00263865
-0.00550685
-0.00673271
-0.00556593
-0.00553747
-0.00732874
-0.00868259
-0.00877578
-0.00855069
-0.000195164
-0.000294263
-0.000997534
0.000273022
-0.000364115
-0.00141862
-0.000238249
0.000125433
-0.00258345
-0.00460185
-0.00307361
-0.00259907
-0.00538358
-0.00691598
-0.00576333
-0.00545009
-0.00724883
-0.00885533
-0.0089683
-0.00853651
-0.000261429
-0.000276986
-0.000965749
6.74263e-05
-0.000414794
-0.00143122
-0.000419435
9.01248e-06
-0.00254151
-0.00467908
-0.00330067
-0.00259535
-0.00523495
-0.00706551
-0.00600925
-0.00540879
-0.00711325
-0.00897178
-0.00919447
-0.00858178
-0.000331983
-0.000266915
-0.000921008
-0.000136354
-0.000487068
-0.00143409
-0.000597652
-0.000125393
-0.00249875
-0.00473557
-0.00354001
-0.00263527
-0.00507255
-0.00716814
-0.00628821
-0.00543151
-0.00694156
-0.00901234
-0.00942926
-0.00869539
-0.000405452
-0.000265951
-0.000864899
-0.000333326
-0.000583707
-0.00143024
-0.000767023
-0.000279675
-0.00246024
-0.00476681
-0.00378357
-0.00272422
-0.0049103
-0.00721575
-0.00658056
-0.00552851
-0.00676052
-0.00896487
-0.00964395
-0.00887484
-0.000480363
-0.000275832
-0.000801135
-0.000516985
-0.000705528
-0.00142464
-0.000921199
-0.000453669
-0.0024328
-0.0047714
-0.00402247
-0.00286245
-0.00476212
-0.00720797
-0.00686587
-0.00569752
-0.00659989
-0.00883227
-0.00980691
-0.00910672
-0.000555326
-0.000298023
-0.000734052
-0.000681087
-0.00085119
-0.00142467
-0.00105417
-0.000643621
-0.00242578
-0.00475296
-0.00424632
-0.00304336
-0.00463966
-0.00715178
-0.00712682
-0.0059247
-0.0064848
-0.00863567
-0.00988974
-0.00936309
-0.000628788
-0.000333902
-0.000668085
-0.000820239
-0.00101798
-0.00143947
-0.00116271
-0.000842634
-0.00244736
-0.0047185
-0.00444658
-0.00325649
-0.00455099
-0.00705777
-0.00735119
-0.00619213
-0.00642888
-0.0084055
-0.00987924
-0.00960457
-0.000699081
-0.000384145
-0.000608862
-0.000929699
-0.001201
-0.00147971
-0.0012498
-0.00103936
-0.00249921
-0.00467806
-0.00461903
-0.00348831
-0.00450103
-0.00693745
-0.00752954
-0.00648256
-0.00643656
-0.00817129
-0.00978335
-0.00979276
-0.000764964
-0.000448244
-0.000562834
-0.00100777
-0.00139269
-0.00155417
-0.00132176
-0.00122025
-0.00257646
-0.00464412
-0.00476551
-0.00372527
-0.00449003
-0.00680239
-0.0076553
-0.00677887
-0.00650834
-0.0079573
-0.00962364
-0.00990315
-0.000825669
-0.000525488
-0.000535256
-0.00105613
-0.00158329
-0.00166633
-0.00138795
-0.00137646
-0.00267127
-0.00462616
-0.004891
-0.00395785
-0.00451206
-0.00666279
-0.00772903
-0.00706509
-0.00663989
-0.00778181
-0.00942364
-0.00993239
-0.000880769
-0.000614005
-0.000530424
-0.00107832
-0.00176068
-0.00181462
-0.0014637
-0.00150638
-0.00277076
-0.00462577
-0.00500316
-0.00418352
-0.00456043
-0.00652603
-0.00775682
-0.00732848
-0.00681978
-0.00765654
-0.0092029
-0.00989236
-0.000930528
-0.000709777
-0.000551372
-0.00108213
-0.00191323
-0.00199361
-0.00156535
-0.00161551
-0.00286043
-0.00463826
-0.0051084
-0.00440184
-0.00463224
-0.00639794
-0.00774394
-0.00755889
-0.00703338
-0.00758805
-0.00897711
-0.00979722
-0.000975671
-0.000808285
-0.000599386
-0.00107802
-0.0020332
-0.00219454
-0.00170467
-0.00171332
-0.00293077
-0.00465664
-0.00520971
-0.00461326
-0.00472565
-0.00628484
-0.00769467
-0.00774656
-0.00726482
-0.00757963
-0.00876182
-0.00965586
-0.00101711
-0.000906019
-0.000674011
-0.00107646
-0.00211721
-0.00240373
-0.00188618
-0.00181549
-0.00297957
-0.00466907
-0.00530581
-0.00481983
-0.00483812
-0.00619237
-0.00761843
-0.00788512
-0.00749633
-0.00763007
-0.00857649
-0.00947695
-0.00105582
-0.000999889
-0.000773058
-0.00108753
-0.00216778
-0.00260538
-0.00210677
-0.00193932
-0.00301112
-0.00466425
-0.00539132
-0.00502193
-0.00496766
-0.00612223
-0.00752637
-0.00797596
-0.00770916
-0.00772733
-0.00843943
-0.00927552
-0.00109503
-0.00108774
-0.000890872
-0.00111704
-0.00218915
-0.00278582
-0.0023602
-0.00209615
-0.00303296
-0.00463902
-0.00545932
-0.00521553
-0.00511349
-0.00607502
-0.00742443
-0.00802559
-0.00789248
-0.0078516
-0.00835948
-0.00907569
-0.00113398
-0.00118363
-0.00102391
-0.00117257
-0.00219343
-0.00293524
-0.00263048
-0.0022893
-0.00305798
-0.00459562
-0.00550505
-0.00539434
-0.00527245
-0.00605477
-0.00731704
-0.0080386
-0.00804577
-0.00798662
-0.00833212
-0.00890227
-0.00117062
-0.0012351
-0.00117147
-0.00126915
-0.00220335
-0.00304787
-0.00289417
-0.00251508
-0.00310241
-0.00453894
-0.00552655
-0.0055535
-0.0054377
-0.00606371
-0.00721295
-0.00801568
-0.00816671
-0.00812231
-0.00834373
-0.00876893
-0.00121561
-0.00131471
-0.00131487
-0.00138714
-0.00222017
-0.0031258
-0.00313376
-0.00276403
-0.00317859
-0.00447955
-0.0055228
-0.00569058
-0.00560378
-0.00609792
-0.00712267
-0.00796358
-0.00824917
-0.00825246
-0.00838382
-0.00867838
-0.00126812
-0.0013755
-0.00145694
-0.00152559
-0.00225125
-0.00317559
-0.00334184
-0.00302465
-0.00328995
-0.0044302
-0.00549623
-0.00580145
-0.00576734
-0.0061527
-0.00704945
-0.00789366
-0.00828939
-0.00836639
-0.00844508
-0.00862658
-0.00132782
-0.00144228
-0.0015907
-0.00167644
-0.00230208
-0.00320963
-0.00351587
-0.00328296
-0.00343298
-0.0044013
-0.00545347
-0.00588248
-0.00592383
-0.00622833
-0.00699371
-0.00781424
-0.00829117
-0.00845112
-0.00851736
-0.00860757
-0.00139714
-0.00151096
-0.00171503
-0.00183288
-0.00237322
-0.00323875
-0.00365782
-0.00352676
-0.00360208
-0.00440015
-0.00540394
-0.00593383
-0.00606377
-0.00632161
-0.00696019
-0.00773035
-0.00826143
-0.00849793
-0.00858407
-0.00861216
-0.0014742
-0.00158867
-0.0018296
-0.00199061
-0.00246456
-0.00327103
-0.00377169
-0.003748
-0.00378648
-0.00442809
-0.00535407
-0.00595534
-0.00617545
-0.00642026
-0.00695313
-0.00765112
-0.00820989
-0.00851001
-0.00863167
-0.0086314
-0.00155684
-0.00166327
-0.00194306
-0.00214992
-0.00257349
-0.00331063
-0.00386146
-0.00394205
-0.00397537
-0.00448241
-0.00530942
-0.00595081
-0.00625634
-0.00651223
-0.00696927
-0.00758833
-0.00814736
-0.00849675
-0.00865648
-0.00865643
-0.00164653
-0.00175363
-0.00205063
-0.00230294
-0.00269497
-0.00336129
-0.0039347
-0.00410782
-0.00415999
-0.00456082
-0.00527845
-0.0059283
-0.00631005
-0.00659138
-0.00699485
-0.00754133
-0.00807835
-0.00845842
-0.00865181
-0.00866742
-0.00174233
-0.00184219
-0.00215725
-0.00245057
-0.00282577
-0.00342604
-0.0039983
-0.00424565
-0.00433105
-0.00465477
-0.00526544
-0.00589532
-0.00633457
-0.00665228
-0.00702091
-0.00750484
-0.0080104
-0.00840369
-0.00862206
-0.00865402
-0.00184428
-0.00194646
-0.00226262
-0.00259011
-0.00296148
-0.00350403
-0.00405758
-0.00435879
-0.00448398
-0.0047559
-0.0052702
-0.00585996
-0.00632923
-0.00668583
-0.00704178
-0.00747276
-0.00794287
-0.00834046
-0.00857771
-0.00862218
-0.00195034
-0.00205034
-0.0023717
-0.00272462
-0.00309911
-0.00359437
-0.00411703
-0.00445172
-0.00461643
-0.004856
-0.00528731
-0.00582799
-0.00630329
-0.00668636
-0.00704765
-0.00744188
-0.00787107
-0.00826374
-0.00851689
-0.00857516
-0.00206212
-0.00216221
-0.00248349
-0.00285228
-0.00323531
-0.00369537
-0.00418121
-0.00452982
-0.00472799
-0.00494978
-0.00531042
-0.00579664
-0.00626391
-0.00665524
-0.00702415
-0.00740325
-0.00779383
-0.00817015
-0.00843406
-0.00850837
-0.00218062
-0.00228761
-0.00259719
-0.0029738
-0.00336816
-0.00380354
-0.0042531
-0.00459996
-0.00481929
-0.00503176
-0.00533687
-0.00576199
-0.00620851
-0.00659762
-0.00696297
-0.00734012
-0.00770683
-0.00806048
-0.00832735
-0.00841679
-0.00230111
-0.00240565
-0.0027194
-0.00309825
-0.00349786
-0.00391554
-0.00433226
-0.00466797
-0.00489536
-0.00509763
-0.0053621
-0.00572604
-0.00613538
-0.00651628
-0.00686564
-0.00723717
-0.00759507
-0.00792753
-0.0081905
-0.00829195
-0.00242768
-0.00253477
-0.00284638
-0.00322127
-0.00362211
-0.00402826
-0.00441771
-0.00473772
-0.00496423
-0.00515036
-0.0053789
-0.00568493
-0.00603781
-0.00639968
-0.00673031
-0.00708352
-0.00743886
-0.00775846
-0.00801636
-0.00812845
-0.00256426
-0.0026715
-0.00297642
-0.0033432
-0.00374247
-0.0041402
-0.00450914
-0.00481314
-0.00503137
-0.00519875
-0.00538603
-0.0056309
-0.00590829
-0.00622411
-0.00653382
-0.00686173
-0.00721658
-0.0075403
-0.00779753
-0.0079245
-0.00269982
-0.00280536
-0.00311465
-0.00347434
-0.00386393
-0.00424721
-0.00460016
-0.00489915
-0.00511827
-0.00526752
-0.00539749
-0.00555498
-0.00573101
-0.00595115
-0.00619227
-0.00644815
-0.00675151
-0.00707925
-0.00739816
-0.00764845
-0.00285193
-0.00295831
-0.00326679
-0.00361769
-0.00399282
-0.00435609
-0.00468486
-0.00498322
-0.00524667
-0.00546282
-0.00558867
-0.00563681
-0.00567984
-0.00578399
-0.00592188
-0.006026
-0.00605902
-0.00600963
-0.0058955
-0.00580652
-0.00297335
-0.0030756
-0.00337826
-0.0037176
-0.00409576
-0.00448252
-0.00479571
-0.0049954
-0.00511194
-0.00521349
-0.0053363
-0.00547659
-0.00559799
-0.00569773
-0.00575866
-0.00577133
-0.00573916
-0.00571209
-0.00571931
-0.0058163
-0.00324824
-0.00335455
-0.00355003
-0.00377524
-0.00405865
-0.00436516
-0.00465653
-0.00489743
-0.00507358
-0.00522874
-0.00539234
-0.00555627
-0.00568588
-0.0057854
-0.00583317
-0.0058206
-0.00573348
-0.00559198
-0.0054475
-0.00537724
-0.00325185
-0.00331553
-0.00355037
-0.00380274
-0.00407534
-0.00436855
-0.00465712
-0.00490668
-0.00509025
-0.00523422
-0.00535421
-0.00546112
-0.00553481
-0.00561309
-0.00572452
-0.00589829
-0.00616838
-0.00653628
-0.00696693
-0.00737106
-0.00349193
-0.00357538
-0.0037125
-0.00385764
-0.00406801
-0.00433465
-0.00462801
-0.00488749
-0.00508224
-0.0052491
-0.00538382
-0.0055073
-0.00559864
-0.00564316
-0.00564611
-0.00558651
-0.00546279
-0.00530899
-0.00518871
-0.00519299
-0.00354532
-0.00361919
-0.00374313
-0.00386659
-0.00405388
-0.00430693
-0.00460341
-0.00487456
-0.00507644
-0.00525881
-0.00540756
-0.00552254
-0.00559915
-0.00561706
-0.00559518
-0.00555262
-0.00550818
-0.005498
-0.0055573
-0.00574994
-0.00110118
-0.00525095
-0.011825
-0.0168195
-0.0177362
-0.0163865
-0.014923
-0.0138473
-0.0129956
-0.0122893
-0.0117985
-0.0115492
-0.0114582
-0.0114155
-0.0113266
-0.0110929
-0.0107449
-0.0104884
-0.0103863
-0.0102981
-0.0101719
-0.0100479
-0.00992816
-0.00980763
-0.00968413
-0.00952785
-0.00930747
-0.00904923
-0.00881564
-0.00863029
-0.00848799
-0.00835812
-0.00822284
-0.0080993
-0.00800262
-0.00790817
-0.00783411
-0.00780714
-0.00780103
-0.0077518
-0.00768725
-0.00764876
-0.00759839
-0.00749723
-0.00736834
-0.00725739
-0.00717044
-0.00704794
-0.00685457
-0.00667114
-0.00654812
-0.00647542
-0.00645647
-0.00646488
-0.00640316
-0.00622409
-0.00600621
-0.00583366
-0.00570542
-0.00559272
-0.00549879
-0.00540027
-0.0052831
-0.00512291
-0.0049816
-0.00486612
-0.00471967
-0.00454222
-0.00438769
-0.00424154
-0.00406499
-0.00390767
-0.00374456
-0.00357336
-0.00336528
-0.00315535
-0.00293463
-0.00272478
-0.00248899
-0.00225752
-0.00202872
-0.00183138
-0.00163132
-0.00138616
-0.00112334
-0.000831222
-0.000617406
-0.000384305
-0.000155377
0.000104082
0.00038338
0.000647722
0.000936075
0.00121979
0.00149914
0.00182809
0.00210599
0.00241533
0.00266491
0.00281032
-0.00153955
-0.00535708
-0.0117251
-0.016668
-0.0176522
-0.0163491
-0.0149007
-0.0138317
-0.0129835
-0.012279
-0.0117892
-0.0115409
-0.0114512
-0.0114099
-0.0113223
-0.0110896
-0.0107419
-0.0104855
-0.0103837
-0.0102958
-0.0101699
-0.010046
-0.00992644
-0.00980602
-0.00968264
-0.00952649
-0.00930618
-0.00904793
-0.00881435
-0.00862903
-0.00848678
-0.00835698
-0.00822173
-0.00809822
-0.00800158
-0.00790718
-0.00783311
-0.00780618
-0.00780015
-0.00775098
-0.00768642
-0.00764798
-0.00759767
-0.00749656
-0.00736769
-0.00725675
-0.00716986
-0.00704744
-0.0068541
-0.00667065
-0.00654763
-0.00647494
-0.00645602
-0.00646449
-0.00640283
-0.00622378
-0.00600588
-0.00583332
-0.00570511
-0.00559242
-0.0054985
-0.00540001
-0.00528285
-0.00512268
-0.00498135
-0.0048659
-0.00471946
-0.00454201
-0.00438747
-0.00424134
-0.00406479
-0.00390748
-0.00374437
-0.00357318
-0.00336511
-0.00315518
-0.00293446
-0.00272462
-0.00248884
-0.00225737
-0.00202857
-0.00183123
-0.00163118
-0.00138604
-0.00112322
-0.000831098
-0.000617279
-0.000384194
-0.000155266
0.000104182
0.000383481
0.000647817
0.000936167
0.00121988
0.00149923
0.00182818
0.00210609
0.00241541
0.00266503
0.00281036
-0.00203065
-0.00551383
-0.011562
-0.0163996
-0.0175051
-0.0162951
-0.0148744
-0.0138131
-0.0129693
-0.0122679
-0.0117803
-0.0115329
-0.0114435
-0.0114028
-0.0113165
-0.0110851
-0.0107382
-0.0104824
-0.0103812
-0.0102936
-0.0101678
-0.0100442
-0.00992487
-0.0098046
-0.00968137
-0.00952535
-0.00930506
-0.00904676
-0.00881317
-0.0086279
-0.00848573
-0.00835599
-0.00822076
-0.00809725
-0.00800067
-0.0079063
-0.00783223
-0.00780534
-0.0077994
-0.00775027
-0.00768571
-0.00764732
-0.00759707
-0.00749597
-0.0073671
-0.00725619
-0.00716937
-0.00704702
-0.00685368
-0.00667018
-0.00654716
-0.00647448
-0.00645561
-0.00646419
-0.00640261
-0.00622352
-0.00600556
-0.00583301
-0.00570482
-0.00559214
-0.00549825
-0.00539979
-0.00528265
-0.00512246
-0.00498113
-0.00486571
-0.00471929
-0.00454183
-0.00438729
-0.00424118
-0.00406462
-0.00390731
-0.00374422
-0.00357304
-0.00336496
-0.00315503
-0.00293432
-0.00272448
-0.00248871
-0.00225723
-0.00202843
-0.0018311
-0.00163107
-0.00138593
-0.00112311
-0.000830981
-0.000617165
-0.000384099
-0.000155173
0.000104265
0.00038357
0.000647898
0.000936247
0.00121997
0.0014993
0.00182826
0.00210617
0.0024155
0.00266516
0.00281037
-0.00249881
-0.00566924
-0.0113534
-0.0160506
-0.0172926
-0.0162114
-0.0148328
-0.0137839
-0.0129475
-0.0122528
-0.0117701
-0.0115247
-0.0114347
-0.0113926
-0.0113063
-0.011077
-0.0107326
-0.0104783
-0.0103776
-0.0102901
-0.0101646
-0.0100416
-0.00992286
-0.00980296
-0.00967998
-0.00952411
-0.00930385
-0.00904552
-0.00881196
-0.00862678
-0.0084847
-0.00835502
-0.00821976
-0.00809622
-0.0079997
-0.00790539
-0.00783133
-0.00780447
-0.00779861
-0.00774954
-0.007685
-0.00764667
-0.00759645
-0.00749535
-0.00736648
-0.0072556
-0.00716885
-0.00704658
-0.00685321
-0.00666967
-0.00654663
-0.00647396
-0.00645518
-0.00646392
-0.00640242
-0.00622326
-0.00600521
-0.00583266
-0.00570451
-0.00559185
-0.00549799
-0.00539956
-0.00528244
-0.00512224
-0.0049809
-0.00486552
-0.00471911
-0.00454164
-0.0043871
-0.00424102
-0.00406445
-0.00390714
-0.00374406
-0.0035729
-0.00336482
-0.00315489
-0.00293417
-0.00272435
-0.00248858
-0.00225709
-0.00202829
-0.00183097
-0.00163096
-0.00138583
-0.00112301
-0.000830854
-0.000617046
-0.000384007
-0.00015508
0.000104347
0.000383663
0.00064798
0.000936327
0.00122005
0.00149937
0.00182834
0.00210626
0.00241559
0.00266533
0.00281036
-0.00294944
-0.00582101
-0.0111247
-0.0156711
-0.017049
-0.0161111
-0.014782
-0.0137462
-0.0129181
-0.0122326
-0.0117576
-0.0115156
-0.0114243
-0.0113787
-0.0112907
-0.0110638
-0.0107241
-0.0104728
-0.0103725
-0.0102844
-0.0101592
-0.0100373
-0.00991962
-0.00980056
-0.00967808
-0.00952247
-0.00930236
-0.00904415
-0.00881072
-0.00862569
-0.00848375
-0.00835411
-0.00821873
-0.00809508
-0.00799861
-0.00790442
-0.00783039
-0.00780348
-0.00779764
-0.00774869
-0.00768425
-0.00764596
-0.00759572
-0.0074946
-0.00736577
-0.00725494
-0.00716823
-0.00704602
-0.00685265
-0.00666908
-0.00654599
-0.00647333
-0.00645469
-0.00646363
-0.00640222
-0.00622295
-0.00600479
-0.00583227
-0.00570416
-0.0055915
-0.0054977
-0.00539932
-0.00528222
-0.00512199
-0.00498063
-0.00486532
-0.00471893
-0.00454143
-0.00438689
-0.00424085
-0.00406426
-0.00390696
-0.0037439
-0.00357275
-0.00336467
-0.00315473
-0.00293401
-0.00272421
-0.00248844
-0.00225693
-0.00202813
-0.00183083
-0.00163085
-0.00138572
-0.0011229
-0.000830709
-0.000616913
-0.000383908
-0.00015498
0.000104435
0.000383764
0.000648067
0.000936413
0.00122013
0.00149944
0.00182842
0.00210635
0.00241569
0.00266554
0.00281034
-0.00337956
-0.00597333
-0.0109
-0.0152862
-0.0167909
-0.0160036
-0.0147291
-0.0137051
-0.0128841
-0.0122085
-0.0117426
-0.0115051
-0.0114125
-0.0113618
-0.0112704
-0.0110461
-0.0107129
-0.0104661
-0.0103659
-0.0102765
-0.0101513
-0.0100305
-0.00991439
-0.00979672
-0.00967513
-0.00952005
-0.00930037
-0.00904256
-0.00880945
-0.00862469
-0.00848301
-0.00835345
-0.00821786
-0.00809389
-0.00799739
-0.00790343
-0.00782945
-0.00780231
-0.00779636
-0.00774762
-0.00768345
-0.00764516
-0.00759477
-0.00749367
-0.00736499
-0.00725422
-0.00716749
-0.00704532
-0.00685199
-0.00666839
-0.00654521
-0.00647255
-0.00645413
-0.00646331
-0.00640198
-0.00622258
-0.0060043
-0.0058318
-0.00570374
-0.0055911
-0.00549736
-0.00539903
-0.00528194
-0.00512168
-0.00498033
-0.00486508
-0.00471871
-0.00454119
-0.00438667
-0.00424066
-0.00406406
-0.00390677
-0.00374373
-0.00357259
-0.00336451
-0.00315456
-0.00293384
-0.00272405
-0.0024883
-0.00225677
-0.00202796
-0.00183068
-0.00163073
-0.0013856
-0.00112278
-0.000830547
-0.000616767
-0.000383801
-0.000154871
0.00010453
0.000383877
0.000648163
0.000936505
0.00122023
0.00149952
0.0018285
0.00210646
0.00241579
0.00266577
0.00281032
-0.00378244
-0.00613156
-0.0106938
-0.0149053
-0.0165208
-0.0158893
-0.0146751
-0.0136625
-0.012847
-0.0121812
-0.0117253
-0.0114931
-0.0113993
-0.0113433
-0.0112476
-0.0110257
-0.0107001
-0.0104585
-0.0103582
-0.010267
-0.0101413
-0.0100214
-0.00990696
-0.00979094
-0.00967058
-0.00951641
-0.00929762
-0.00904062
-0.00880806
-0.00862373
-0.00848248
-0.00835317
-0.00821736
-0.00809286
-0.00799618
-0.00790251
-0.00782862
-0.00780097
-0.00779467
-0.00774624
-0.00768252
-0.00764415
-0.00759346
-0.00749243
-0.00736411
-0.00725346
-0.00716663
-0.00704448
-0.00685126
-0.00666761
-0.00654423
-0.00647157
-0.00645345
-0.00646293
-0.00640166
-0.00622211
-0.00600373
-0.00583126
-0.00570324
-0.00559061
-0.00549694
-0.00539867
-0.00528159
-0.00512131
-0.00497998
-0.0048648
-0.00471843
-0.00454091
-0.00438641
-0.00424044
-0.00406383
-0.00390657
-0.00374355
-0.00357243
-0.00336435
-0.00315438
-0.00293366
-0.00272389
-0.00248814
-0.00225659
-0.00202778
-0.00183052
-0.00163061
-0.00138547
-0.00112265
-0.000830367
-0.000616605
-0.000383683
-0.000154752
0.000104636
0.000384002
0.000648269
0.000936605
0.00122033
0.0014996
0.00182856
0.00210658
0.0024159
0.00266602
0.0028103
-0.00415723
-0.00630098
-0.0105122
-0.0145291
-0.0162361
-0.015765
-0.0146195
-0.0136192
-0.0128077
-0.012151
-0.0117055
-0.0114794
-0.0113851
-0.0113236
-0.0112234
-0.011004
-0.0106863
-0.0104503
-0.0103499
-0.0102566
-0.0101301
-0.0100109
-0.00989778
-0.00978328
-0.00966425
-0.00951132
-0.00929392
-0.00903821
-0.00880647
-0.00862269
-0.00848203
-0.0083532
-0.0082173
-0.00809218
-0.00799516
-0.00790184
-0.00782803
-0.00779954
-0.00779256
-0.00774452
-0.0076814
-0.00764284
-0.00759163
-0.00749072
-0.00736299
-0.00725259
-0.0071656
-0.00704354
-0.00685059
-0.00666687
-0.00654309
-0.00647037
-0.00645262
-0.00646242
-0.00640121
-0.00622154
-0.00600308
-0.00583065
-0.00570264
-0.00559003
-0.00549644
-0.00539821
-0.00528114
-0.00512086
-0.00497955
-0.00486443
-0.00471808
-0.00454058
-0.0043861
-0.00424017
-0.00406356
-0.00390634
-0.00374335
-0.00357224
-0.00336416
-0.00315419
-0.00293347
-0.00272372
-0.00248799
-0.0022564
-0.00202758
-0.00183035
-0.00163047
-0.00138533
-0.0011225
-0.000830169
-0.000616426
-0.000383552
-0.00015462
0.000104757
0.000384143
0.000648391
0.000936719
0.00122045
0.00149969
0.00182862
0.00210672
0.002416
0.00266627
0.00281029
-0.00450795
-0.00647999
-0.010352
-0.014156
-0.0159359
-0.0156302
-0.0145629
-0.0135765
-0.0127669
-0.012118
-0.0116833
-0.0114641
-0.0113699
-0.0113033
-0.0111985
-0.0109814
-0.0106717
-0.0104415
-0.0103409
-0.0102455
-0.0101184
-0.00999974
-0.0098876
-0.00977425
-0.00965636
-0.00950482
-0.00928925
-0.0090353
-0.00880465
-0.00862151
-0.00848151
-0.00835333
-0.00821756
-0.0080919
-0.0079945
-0.00790157
-0.0078278
-0.00779817
-0.00779019
-0.00774254
-0.00768013
-0.00764118
-0.00758918
-0.00748837
-0.00736146
-0.00725142
-0.00716429
-0.00704246
-0.00685009
-0.00666636
-0.00654196
-0.00646903
-0.00645164
-0.00646172
-0.00640054
-0.00622083