/*--------------------------------*- C++ -*----------------------------------*\
| =========                 |                                                 |
| \\      /  F ield         | OpenFOAM: The Open Source CFD Toolbox           |
|  \\    /   O peration     | Version:  2506                                  |
|   \\  /    A nd           | Website:  www.openfoam.com                      |
|    \\/     M anipulation  |                                                 |
\*---------------------------------------------------------------------------*/
FoamFile
{
    version     2.0;
    format      ascii;
    arch        "LSB;label=32;scalar=64";
    class       volScalarField;
    location    "6.15";
    object      p;
}
// * * * * * * * * * * * * * * * * * * * * * * * * * * * * * * * * * * * * * //

dimensions      [0 2 -2 0 0 0 0];

internalField   nonuniform List<scalar> 
9600
(
-1.80204e-10
0.00093938
0.00208931
0.000809528
0.00262831
0.00115435
0.00460308
0.0033591
0.0036616
0.00377651
0.00558821
0.00684314
0.00731981
0.00936273
0.0106614
0.0129562
0.0172791
0.0202787
0.0292334
0.0351922
-2.30098e-06
0.000946535
0.00208976
0.000806183
0.00262666
0.00115293
0.00462863
0.00334616
0.00366899
0.00377339
0.00558349
0.00685047
0.00729306
0.00936916
0.0106587
0.0129466
0.0172838
0.0202158
0.0292946
0.0346825
-5.14526e-06
0.000954159
0.00208894
0.000802274
0.00262262
0.00115279
0.00465053
0.00332462
0.0036884
0.00376566
0.00557348
0.00686281
0.00725445
0.00938575
0.0106515
0.0129406
0.0172698
0.020157
0.0292599
0.0339775
-7.91448e-06
0.000960077
0.0020878
0.000799228
0.00261569
0.0011535
0.00466802
0.00329095
0.00370376
0.00375793
0.00555917
0.00688214
0.0072125
0.00939736
0.010652
0.0129292
0.0172536
0.0200976
0.0291192
0.0333289
-1.07136e-05
0.000963973
0.00208699
0.000796675
0.0026068
0.00115583
0.00468224
0.00324299
0.00371473
0.00375079
0.00554431
0.00690737
0.00717223
0.00940997
0.0106616
0.0129136
0.0172385
0.0200225
0.028937
0.0326945
-1.36386e-05
0.00096737
0.00208645
0.00079439
0.00259734
0.00116113
0.004692
0.00318243
0.00372955
0.00374623
0.0055309
0.00693847
0.00713632
0.00942316
0.0106791
0.0128954
0.0172152
0.0199433
0.0287075
0.032077
-1.67278e-05
0.000970802
0.00208615
0.000792317
0.00258868
0.00117051
0.00469598
0.00311389
0.00375401
0.00374478
0.00551823
0.00697442
0.00710503
0.00943556
0.0107031
0.0128734
0.0171835
0.0198599
0.028427
0.0314687
-1.99882e-05
0.000974615
0.00208613
0.000790421
0.00258188
0.00118442
0.00469318
0.00304229
0.00379034
0.00374605
0.00550504
0.00701341
0.00707795
0.0094463
0.0107311
0.0128482
0.0171415
0.0197718
0.0280932
0.0308656
-2.34129e-05
0.000978946
0.00208639
0.000788751
0.0025775
0.00120244
0.00468294
0.00297209
0.00383955
0.00374974
0.00549059
0.00705386
0.00705365
0.0094542
0.0107612
0.0128211
0.017087
0.0196764
0.0277088
0.0302642
-2.6999e-05
0.000983771
0.0020869
0.000787383
0.00257559
0.00122356
0.00466524
0.00290691
0.00390106
0.00375553
0.00547442
0.00709469
0.00703126
0.00945903
0.0107917
0.0127924
0.0170178
0.0195711
0.0272787
0.0296606
-3.0745e-05
0.00098903
0.00208755
0.000786338
0.00257584
0.00124661
0.00464096
0.00284886
0.00397179
0.00376307
0.00545624
0.00713536
0.00701038
0.00946105
0.0108208
0.0127615
0.0169331
0.0194533
0.0268068
0.029049
-3.46684e-05
0.000994644
0.00208818
0.000785618
0.00257775
0.00127052
0.00461181
0.00279819
0.00404671
0.0037723
0.00543558
0.00717585
0.00699088
0.00945993
0.0108463
0.0127275
0.0168329
0.0193195
0.026298
0.028425
-3.88062e-05
0.00100054
0.00208871
0.000785195
0.0025808
0.00129462
0.00457971
0.00275358
0.00412029
0.00378369
0.00541142
0.00721644
0.00697233
0.00945477
0.0108665
0.0126895
0.0167171
0.0191651
0.0257574
0.027787
-4.31695e-05
0.00100666
0.00208902
0.000785023
0.00258456
0.00131869
0.00454624
0.00271317
0.0041878
0.00379799
0.00538245
0.00725729
0.0069542
0.00944511
0.01088
0.0126452
0.0165868
0.018986
0.0251884
0.0271356
-4.7752e-05
0.00101299
0.00208904
0.000785063
0.00258871
0.0013427
0.00451216
0.00267576
0.00424627
0.00381597
0.00534749
0.007298
0.00693588
0.00943011
0.0108861
0.0125912
0.0164436
0.0187806
0.024592
0.0264718
-5.25426e-05
0.0010195
0.00208874
0.000785254
0.00259294
0.00136664
0.00447752
0.00264128
0.00429447
0.00383826
0.00530574
0.00733758
0.00691661
0.00940726
0.0108849
0.012524
0.0162887
0.0185488
0.0239695
0.0257973
-5.75009e-05
0.00102612
0.0020881
0.00078553
0.00259695
0.00139052
0.0044419
0.0026105
0.00433215
0.00386528
0.00525679
0.00737507
0.00689637
0.00937574
0.0108769
0.01244
0.0161226
0.0182921
0.0233206
0.0251143
-6.25667e-05
0.00103274
0.00208715
0.000785846
0.00260051
0.00141434
0.00440471
0.00258427
0.00435928
0.00389743
0.00520046
0.00740982
0.00687503
0.00933453
0.0108644
0.0123359
0.0159442
0.0180145
0.0226437
0.0244232
-6.76732e-05
0.00103919
0.0020859
0.000786163
0.00260339
0.00143821
0.00436531
0.00256296
0.00437568
0.00393517
0.00513665
0.00744118
0.00685269
0.0092813
0.0108501
0.0122098
0.0157497
0.0177224
0.0219378
0.0237212
-7.27398e-05
0.00104529
0.00208444
0.000786444
0.00260531
0.00146232
0.00432312
0.00254644
0.00438088
0.00397879
0.00506543
0.00746822
0.00682941
0.00921407
0.0108365
0.0120621
0.0155334
0.0174229
0.0212048
0.0230023
-7.76621e-05
0.00105081
0.0020828
0.000786665
0.00260601
0.00148686
0.00427753
0.00253461
0.00437418
0.00402835
0.00498717
0.0074896
0.0068044
0.00913282
0.0108236
0.011895
0.0152883
0.017122
0.0204508
0.0222585
-8.23137e-05
0.00105549
0.00208105
0.000786821
0.00260518
0.00151206
0.00422779
0.00252737
0.00435491
0.00408358
0.0049027
0.00750361
0.00677863
0.00904125
0.0108089
0.0117126
0.0150073
0.0168222
0.0196849
0.0214811
-8.65524e-05
0.00105905
0.00207926
0.000786925
0.00260248
0.00153831
0.00417309
0.0025246
0.00432262
0.00414374
0.00481343
0.00750824
0.00676688
0.00891352
0.0107889
0.0115198
0.014684
0.0165222
0.0189197
0.0206633
-9.02212e-05
0.00106119
0.00207744
0.000786984
0.00259762
0.00156598
0.00411264
0.00252634
0.00427691
0.0042078
0.00472144
0.00750038
0.0067788
0.00876331
0.010758
0.011323
0.0143144
0.0162148
0.0181702
0.0198034
-9.31471e-05
0.00106161
0.00207563
0.000787066
0.00259021
0.00159545
0.00404571
0.00253259
0.00421759
0.00427432
0.00462926
0.00747602
0.0068081
0.00859175
0.0107087
0.0111292
0.013899
0.0158895
0.0174507
0.0189063
-9.51294e-05
0.00105999
0.00207384
0.000787316
0.00257974
0.00162718
0.00397165
0.00254315
0.00414482
0.00434095
0.00454012
0.00743207
0.00684984
0.0084023
0.0106329
0.0109434
0.0134424
0.0155337
0.0167711
0.0179829
-9.59386e-05
0.00105594
0.00207202
0.000787915
0.00256558
0.00166167
0.00389002
0.00255771
0.00405911
0.0044049
0.00445793
0.00736604
0.00690131
0.00820014
0.0105229
0.0107679
0.0129525
0.0151345
0.0161346
0.0170483
-9.53601e-05
0.00104913
0.00207007
0.000789105
0.0025471
0.00169935
0.00380058
0.0025756
0.00396172
0.00446311
0.00438593
0.00727555
0.00695874
0.00799189
0.0103715
0.0106012
0.0124409
0.01468
0.0155367
0.0161231
-9.3169e-05
0.00103924
0.00206778
0.000791252
0.00252358
0.00174044
0.00370338
0.00259563
0.00385492
0.00451182
0.00432599
0.00715987
0.00701753
0.00778424
0.0101743
0.0104386
0.0119201
0.0141637
0.0149674
0.0152292
-8.91296e-05
0.00102603
0.0020648
0.000794848
0.00249415
0.001785
0.00359905
0.00261616
0.00374127
0.00454728
0.00427939
0.00701978
0.00707181
0.00758277
0.00992974
0.0102718
0.011403
0.0135871
0.0144113
0.0143832
-8.30127e-05
0.00100926
0.00206071
0.000800349
0.00245797
0.00183285
0.00348848
0.00263546
0.0036237
0.00456593
0.00424664
0.00685701
0.00711446
0.00739224
0.00963959
0.010091
0.0109012
0.0129591
0.0138487
0.0135944
-7.45865e-05
0.00098878
0.00205497
0.000808223
0.00241441
0.00188354
0.0033729
0.0026513
0.00350554
0.00456469
0.00422632
0.00667457
0.00713785
0.00721629
0.00930876
0.00988504
0.0104224
0.0122926
0.0132605
0.0128637
-6.36536e-05
0.000964576
0.00204689
0.000818922
0.00236294
0.00193645
0.00325423
0.00266085
0.00338965
0.00454178
0.00421548
0.0064768
0.00713474
0.00705548
0.00894464
0.00964358
0.00996903
0.0116032
0.0126333
0.0121821
-5.00463e-05
0.000936794
0.00203559
0.000832698
0.00230337
0.0019905
0.00313457
0.00266155
0.00327822
0.00449645
0.00421003
0.0062688
0.00709956
0.00690739
0.00855612
0.00935931
0.00953745
0.0109072
0.0119615
0.0115332
-3.36529e-05
0.000905668
0.00202003
0.000849804
0.00223597
0.00204397
0.00301617
0.00265121
0.0031724
0.00442887
0.00420521
0.00605507
0.00702901
0.00676831
0.00815255
0.00902884
0.0091195
0.0102195
0.0112492
0.0108958
-1.4418e-05
0.00087148
0.00199917
0.00087058
0.00216125
0.00209481
0.00290155
0.00262799
0.00307235
0.00434079
0.00419621
0.00583864
0.00692077
0.00663271
0.0077426
0.00865292
0.00870565
0.00955107
0.0105086
0.0102474
7.63234e-06
0.000834619
0.00197201
0.000895141
0.00208
0.0021406
0.00279288
0.00259088
0.00297782
0.00423491
0.00417819
0.00562139
0.00677387
0.00649381
0.00733369
0.00823625
0.00828525
0.00890641
0.00975594
0.00957348
3.23856e-05
0.000795589
0.0019376
0.000923132
0.0019935
0.0021787
0.00269207
0.00254012
0.00288738
0.00411351
0.00414656
0.00540467
0.00658986
0.00634431
0.00693085
0.00778576
0.0078504
0.00828306
0.00900489
0.00887364
5.96336e-05
0.000754959
0.00189512
0.000954004
0.00190318
0.0022066
0.00260067
0.00247671
0.00279766
0.00397834
0.00409808
0.00518937
0.00637156
0.00617682
0.00653507
0.00730871
0.00739827
0.00767579
0.00826436
0.0081585
8.90293e-05
0.000713434
0.00184386
0.000987212
0.00180506
0.00222162
0.00251903
0.00240235
0.00270519
0.00383081
0.00403096
0.00497529
0.0061222
0.00598535
0.00614483
0.00681104
0.00692835
0.00708112
0.0075377
0.00744016
0.000120133
0.000671853
0.0017833
0.00102166
0.00170951
0.00222147
0.0024461
0.00231982
0.0026075
0.00367184
0.00394315
0.00476072
0.00584619
0.00576572
0.00575856
0.0062975
0.00643932
0.00649788
0.00682499
0.00672668
0.000152309
0.000631315
0.00171312
0.00105553
0.00161807
0.00220466
0.00238
0.00223197
0.0025029
0.003502
0.00383245
0.0045429
0.00554871
0.00551407
0.00537401
0.00577298
0.00592869
0.00592437
0.00612818
0.00602265
0.000184604
0.000593167
0.00163339
0.00108639
0.00153241
0.00217056
0.00231774
0.0021411
0.00239058
0.00332177
0.003697
0.00431786
0.00523373
0.00523023
0.0049892
0.00524117
0.00539579
0.00535805
0.00545037
0.00532742
0.00021588
0.000558522
0.00154484
0.00111132
0.0014551
0.00211963
0.00225538
0.00204811
0.00227024
0.00313225
0.00353567
0.00408124
0.00490413
0.00492691
0.00460256
0.00470578
0.00484175
0.00479325
0.00479345
0.00464132
0.000244861
0.000528205
0.00144896
0.00112699
0.00138702
0.00205365
0.00218847
0.00195294
0.00214241
0.00293431
0.00334992
0.00382887
0.00456072
0.00460423
0.00421338
0.00417165
0.00426851
0.00422253
0.00415717
0.00396789
0.000270266
0.0005027
0.00134823
0.0011298
0.0013282
0.00197652
0.00211347
0.00185448
0.00200674
0.00272769
0.00314163
0.00355943
0.00420401
0.00426291
0.00382335
0.00364318
0.00368043
0.00364066
0.00353747
0.00331142
0.000291183
0.00048181
0.00124578
0.00111703
0.00127641
0.00189312
0.00202896
0.00174938
0.00186179
0.00251263
0.00291362
0.0032747
0.00383481
0.00390139
0.00343132
0.00312531
0.00308502
0.0030438
0.00292588
0.00267581
0.000307018
0.000464687
0.00114468
0.00108692
0.00122588
0.0018073
0.00193539
0.00163437
0.00170584
0.00229038
0.00267075
0.00297631
0.00345225
0.00351972
0.00303398
0.00262149
0.00249003
0.00243203
0.00231234
0.00205814
0.0003174
0.000449919
0.00104774
0.00103918
0.00116948
0.00172038
0.00183569
0.00150838
0.00153698
0.00206092
0.00241735
0.00266607
0.00305642
0.00311864
0.00263315
0.00213092
0.00190196
0.00181284
0.00169033
0.00144917
0.000322369
0.000435622
0.000956827
0.000975625
0.00110069
0.00163143
0.00173316
0.00137271
0.00135298
0.00182265
0.00215585
0.00234761
0.0026497
0.00269779
0.00224934
0.00165115
0.00132538
0.00119306
0.00106094
0.000839034
0.000322157
0.000419998
0.000872439
0.000899858
0.00101512
0.0015366
0.00162996
0.00122957
0.00115338
0.00157289
0.00188642
0.00202477
0.00223503
0.00225533
0.00181863
0.00117794
0.000761801
0.000577382
0.000432293
0.000222803
0.000317086
0.000401454
0.000793997
0.000816439
0.000911241
0.00142914
0.00152619
0.00108283
0.000939886
0.00130842
0.0016074
0.00169935
0.00181689
0.00179573
0.00137008
0.000709195
0.000211866
-3.16075e-05
-0.000188572
-0.000393917
0.000307796
0.000378628
0.000719923
0.000729257
0.000788201
0.00130209
0.0014192
0.000938227
0.00071586
0.00102765
0.00131582
0.00137151
0.00140067
0.00132475
0.000905321
0.000243086
-0.000322323
-0.000632293
-0.000802278
-0.00100142
0.000295106
0.000350629
0.000647637
0.000641384
0.000650098
0.00114995
0.00130278
0.000798677
0.000487426
0.000730529
0.00100716
0.00103925
0.000990474
0.000850789
0.000426787
-0.000225801
-0.000841961
-0.0012216
-0.00141422
-0.00159567
0.000280119
0.000317104
0.000573847
0.000554515
0.000501198
0.000969464
0.00116625
0.000667155
0.000264817
0.000419717
0.000677385
0.000698041
0.000586408
0.000380884
-6.07345e-05
-0.000715599
-0.00135397
-0.0017944
-0.00202346
-0.00218235
0.000262729
0.000278162
0.000495443
0.000468043
0.000347024
0.000757949
0.00100253
0.000540664
5.59717e-05
0.000102163
0.000325091
0.00034234
0.000185542
-8.183e-05
-0.000547538
-0.00120851
-0.00186362
-0.00234945
-0.00262459
-0.00276813
0.000243733
0.000234199
0.000407764
0.000379263
0.000192953
0.000518932
0.000805646
0.000412762
-0.000136069
-0.000211666
-4.6642e-05
-3.44185e-05
-0.000217275
-0.000535173
-0.00102821
-0.00169919
-0.00237748
-0.00289202
-0.00320878
-0.00335436
0.00022221
0.000187958
0.000307205
0.000283381
4.55478e-05
0.000264347
0.00057268
0.000271553
-0.000311981
-0.000513864
-0.00042987
-0.000434062
-0.000628987
-0.000980743
-0.00150062
-0.00218108
-0.00287974
-0.00342578
-0.00377415
-0.00393214
0.000194067
0.000135513
0.000199439
0.000178047
-9.01731e-05
9.33898e-06
0.000304461
0.000101935
-0.000478444
-0.000799037
-0.000814219
-0.000851566
-0.00105596
-0.00142531
-0.00196361
-0.00265182
-0.00336935
-0.00394955
-0.0043274
-0.00453313
0.000158337
7.90086e-05
8.43091e-05
5.94581e-05
-0.000218617
-0.000232956
8.86406e-06
-0.000106535
-0.000647479
-0.00106372
-0.00119069
-0.00127921
-0.00149834
-0.00187604
-0.00241972
-0.00311041
-0.00384222
-0.00446199
-0.0048901
-0.00509746
0.000114203
1.60527e-05
-3.60866e-05
-7.36297e-05
-0.000347331
-0.000461225
-0.000299302
-0.000355985
-0.000833348
-0.00131003
-0.00154995
-0.00170831
-0.00195108
-0.00233533
-0.00287506
-0.00355909
-0.00429619
-0.00494675
-0.00541055
-0.00564343
5.97359e-05
-4.39625e-05
-0.000158504
-0.000220243
-0.000482832
-0.000667241
-0.000606094
-0.000642879
-0.00104734
-0.00154695
-0.00188658
-0.00212775
-0.00240703
-0.00280055
-0.00333391
-0.00400295
-0.00473437
-0.00540357
-0.00590176
-0.00616533
-5.32382e-06
-0.000120876
-0.000283017
-0.000378509
-0.000630104
-0.000860987
-0.00090107
-0.000955404
-0.00129453
-0.00178614
-0.0022019
-0.00252745
-0.00285699
-0.00326732
-0.00379492
-0.00444541
-0.0051626
-0.00583783
-0.00636495
-0.00666098
-8.06792e-05
-0.000205528
-0.000410302
-0.000545571
-0.000791497
-0.00104959
-0.00117927
-0.0012787
-0.00157495
-0.00203726
-0.00250126
-0.00290297
-0.00329026
-0.00372914
-0.00425504
-0.00488632
-0.00558449
-0.00625429
-0.00679918
-0.00713011
-0.000166968
-0.000300458
-0.000539151
-0.000717665
-0.000967577
-0.00123994
-0.00144063
-0.00159949
-0.00188161
-0.00230725
-0.00279193
-0.0032547
-0.00369835
-0.00417559
-0.00470972
-0.00532291
-0.00599993
-0.00665777
-0.00720843
-0.00756425
-0.000262921
-0.000403673
-0.00067262
-0.000893602
-0.00115685
-0.00143711
-0.0016891
-0.00190847
-0.00220119
-0.00259837
-0.00308101
-0.00358511
-0.00407899
-0.00459522
-0.00514953
-0.00575185
-0.00640614
-0.00704926
-0.00759471
-0.00794753
-0.000369705
-0.000519417
-0.000809847
-0.00106886
-0.00135464
-0.0016432
-0.00193141
-0.00220393
-0.00251995
-0.00290565
-0.00337543
-0.00389746
-0.00443222
-0.00498336
-0.00556253
-0.00616579
-0.00679828
-0.0074253
-0.00795625
-0.0083249
-0.000485298
-0.000642299
-0.00095501
-0.00124762
-0.00155863
-0.00185826
-0.00217145
-0.00248693
-0.00282985
-0.00321692
-0.00367599
-0.00419695
-0.00475639
-0.00533873
-0.00594114
-0.0065537
-0.0071713
-0.00778514
-0.0083133
-0.00868165
-0.000610352
-0.000774469
-0.00110649
-0.00142733
-0.00176461
-0.00208038
-0.00241287
-0.00276033
-0.0031288
-0.00352267
-0.00397657
-0.00448844
-0.00505181
-0.00565344
-0.00627569
-0.00690469
-0.00751946
-0.00812326
-0.00865007
-0.00901832
-0.000746697
-0.000919636
-0.00126287
-0.00160608
-0.00197004
-0.00230521
-0.00265524
-0.00302656
-0.00341709
-0.0038192
-0.00426677
-0.00476937
-0.00532685
-0.00593197
-0.00656279
-0.00719822
-0.00780125
-0.0083942
-0.00892902
-0.0093077
-0.000889194
-0.00106624
-0.00142842
-0.00179475
-0.00217841
-0.00253296
-0.00289834
-0.00328343
-0.00369114
-0.00410623
-0.00454418
-0.00502625
-0.005568
-0.00616774
-0.00680295
-0.00745464
-0.00810332
-0.00868184
-0.00919997
-0.00958156
-0.0010411
-0.00122324
-0.0015986
-0.00198312
-0.0023834
-0.00275802
-0.00314418
-0.00354107
-0.00395209
-0.00437552
-0.00481707
-0.00527758
-0.00576668
-0.00631253
-0.00692579
-0.00757416
-0.00819837
-0.00879322
-0.00932291
-0.00972524
-0.00120317
-0.00139117
-0.00177163
-0.00216934
-0.00258469
-0.00297666
-0.00338297
-0.00379808
-0.0042157
-0.00462966
-0.00505827
-0.00551134
-0.00599673
-0.0065272
-0.00708521
-0.00766208
-0.00827443
-0.00886128
-0.0093935
-0.00981254
-0.00136934
-0.00156113
-0.00195128
-0.00236306
-0.0027887
-0.00319503
-0.00361543
-0.0040447
-0.00448162
-0.00489339
-0.00526078
-0.00560446
-0.00595727
-0.00637844
-0.00690467
-0.00750065
-0.00814984
-0.00877957
-0.0093739
-0.00988942
-0.0015393
-0.00173661
-0.00213949
-0.00256066
-0.00298757
-0.00340229
-0.00384593
-0.00429606
-0.00477193
-0.00527529
-0.0057687
-0.00614119
-0.0063312
-0.00649688
-0.00682001
-0.00720251
-0.00754884
-0.00784317
-0.00808405
-0.00834085
-0.00172352
-0.00191896
-0.00231137
-0.0027234
-0.00314338
-0.00357869
-0.00406981
-0.00453812
-0.0049179
-0.00518462
-0.0053945
-0.00563026
-0.00604938
-0.00650235
-0.0069067
-0.00729113
-0.00764456
-0.00798897
-0.00833504
-0.00872804
-0.0019289
-0.00215443
-0.00255092
-0.00292576
-0.00328192
-0.00363085
-0.00401642
-0.00441848
-0.00487959
-0.00536773
-0.00582118
-0.00628453
-0.0066529
-0.00698486
-0.00725414
-0.00747662
-0.00763723
-0.00776281
-0.00791029
-0.00816145
-0.00209831
-0.00225542
-0.00259581
-0.00295251
-0.00330081
-0.00364431
-0.00405288
-0.00449198
-0.00492394
-0.0052937
-0.00561301
-0.00594482
-0.00629378
-0.00670693
-0.00718798
-0.00774243
-0.00837827
-0.00908288
-0.00982306
-0.0105126
-0.00232021
-0.00250768
-0.00277497
-0.00302484
-0.00331003
-0.00365333
-0.00409449
-0.00455182
-0.0050209
-0.00548891
-0.00588765
-0.0062568
-0.00664634
-0.00699042
-0.00728579
-0.00753797
-0.00775173
-0.00794899
-0.00816983
-0.00848945
-0.00245322
-0.00263182
-0.00286078
-0.0030544
-0.00330749
-0.00363308
-0.00406508
-0.00453332
-0.0050176
-0.00544527
-0.00579563
-0.00609795
-0.00641986
-0.00675526
-0.00706495
-0.00735739
-0.00765578
-0.00798561
-0.00837428
-0.00888595
0.0521292
0.0352044
0.0189464
0.00874818
0.00423057
0.0026825
0.00138816
-0.000496666
-0.0025776
-0.00416499
-0.00516664
-0.00604032
-0.00708203
-0.00824715
-0.0094283
-0.0105137
-0.0114189
-0.0122935
-0.0133705
-0.0145738
-0.0156865
-0.0166971
-0.0176939
-0.0187107
-0.019791
-0.0209877
-0.0222739
-0.0235804
-0.0248724
-0.0260981
-0.0272123
-0.0282495
-0.029274
-0.0303181
-0.0314052
-0.0325494
-0.0337014
-0.0348343
-0.0359964
-0.0372057
-0.0384096
-0.0396
-0.0407963
-0.0420097
-0.0432394
-0.0445095
-0.0458137
-0.0471411
-0.0484953
-0.0498833
-0.0512865
-0.0527213
-0.0541769
-0.0556252
-0.0570503
-0.0584866
-0.0600077
-0.0615866
-0.0631587
-0.0647487
-0.0663957
-0.0680527
-0.0697105
-0.0714013
-0.0731488
-0.0748962
-0.0766857
-0.0785168
-0.0803944
-0.0823348
-0.0843284
-0.0863289
-0.0883272
-0.0903609
-0.0924065
-0.0944954
-0.0966766
-0.0989139
-0.101169
-0.103439
-0.105771
-0.108119
-0.11053
-0.112982
-0.115489
-0.118046
-0.120628
-0.12328
-0.125961
-0.128704
-0.131459
-0.134285
-0.137099
-0.140035
-0.142962
-0.145944
-0.149022
-0.151941
-0.154931
-0.157863
0.0494718
0.0349651
0.0190217
0.00888121
0.00432429
0.00273028
0.00141692
-0.00047808
-0.00256573
-0.00415689
-0.00516015
-0.00603438
-0.00707644
-0.00824188
-0.00942351
-0.0105095
-0.0114149
-0.0122893
-0.0133664
-0.0145702
-0.0156834
-0.0166941
-0.0176912
-0.0187081
-0.0197885
-0.0209853
-0.0222717
-0.0235785
-0.0248707
-0.0260966
-0.027211
-0.0282482
-0.0292728
-0.030317
-0.0314042
-0.0325485
-0.0337005
-0.0348335
-0.0359956
-0.037205
-0.038409
-0.0395995
-0.0407957
-0.0420092
-0.0432389
-0.044509
-0.0458132
-0.0471406
-0.0484949
-0.0498828
-0.0512861
-0.0527209
-0.0541765
-0.0556249
-0.05705
-0.0584863
-0.0600074
-0.0615863
-0.0631584
-0.0647484
-0.0663954
-0.0680524
-0.0697102
-0.071401
-0.0731485
-0.074896
-0.0766854
-0.0785165
-0.0803942
-0.0823345
-0.0843282
-0.0863287
-0.088327
-0.0903607
-0.0924063
-0.0944953
-0.0966765
-0.0989138
-0.101169
-0.103439
-0.105771
-0.108119
-0.11053
-0.112982
-0.115489
-0.118046
-0.120628
-0.12328
-0.125961
-0.128704
-0.131459
-0.134285
-0.137099
-0.140035
-0.142962
-0.145944
-0.149022
-0.151941
-0.154931
-0.157863
0.0476964
0.034869
0.019215
0.00912558
0.0044769
0.00278779
0.00144341
-0.000457021
-0.00254767
-0.0041424
-0.00514958
-0.0060274
-0.0070717
-0.00823769
-0.00941924
-0.0105055
-0.0114114
-0.012286
-0.0133633
-0.0145673
-0.0156806
-0.0166914
-0.0176887
-0.0187057
-0.0197862
-0.0209831
-0.0222697
-0.0235768
-0.0248694
-0.0260955
-0.0272099
-0.0282471
-0.0292717
-0.030316
-0.0314033
-0.0325476
-0.0336998
-0.0348328
-0.0359949
-0.0372044
-0.0384085
-0.039599
-0.0407952
-0.0420087
-0.0432384
-0.0445085
-0.0458128
-0.0471403
-0.0484945
-0.0498825
-0.0512857
-0.0527206
-0.0541762
-0.0556246
-0.0570497
-0.058486
-0.060007
-0.061586
-0.0631581
-0.0647481
-0.0663952
-0.0680522
-0.06971
-0.0714008
-0.0731483
-0.0748958
-0.0766852
-0.0785163
-0.080394
-0.0823343
-0.084328
-0.0863285
-0.0883268
-0.0903605
-0.0924062
-0.0944951
-0.0966763
-0.0989136
-0.101169
-0.103439
-0.10577
-0.108119
-0.11053
-0.112981
-0.115489
-0.118045
-0.120628
-0.12328
-0.125961
-0.128704
-0.131459
-0.134285
-0.137099
-0.140035
-0.142962
-0.145944
-0.149022
-0.151941
-0.154931
-0.157863
0.0458943
0.0346526
0.0194034
0.00940111
0.00466774
0.00286171
0.00147899
-0.000424872
-0.0025156
-0.00411455
-0.00513062
-0.00601784
-0.00706771
-0.00823441
-0.00941417
-0.0104996
-0.0114067
-0.0122831
-0.0133612
-0.0145649
-0.0156776
-0.0166883
-0.017686
-0.0187033
-0.0197837
-0.0209805
-0.0222673
-0.0235747
-0.0248679
-0.0260944
-0.0272087
-0.0282457
-0.0292703
-0.0303148
-0.0314022
-0.0325467
-0.0336989
-0.034832
-0.0359941
-0.0372037
-0.0384079
-0.0395984
-0.0407947
-0.0420082
-0.0432379
-0.0445081
-0.0458124
-0.0471399
-0.0484941
-0.0498821
-0.0512853
-0.0527202
-0.054176
-0.0556243
-0.0570494
-0.0584856
-0.0600067
-0.0615858
-0.0631579
-0.0647478
-0.0663949
-0.0680519
-0.0697097
-0.0714005
-0.0731481
-0.0748955
-0.076685
-0.0785161
-0.0803938
-0.0823341
-0.0843279
-0.0863284
-0.0883267
-0.0903604
-0.0924061
-0.0944949
-0.0966762
-0.0989135
-0.101169
-0.103439
-0.10577
-0.108119
-0.11053
-0.112981
-0.115488
-0.118045
-0.120628
-0.12328
-0.125961
-0.128704
-0.131459
-0.134285
-0.137099
-0.140035
-0.142962
-0.145944
-0.149022
-0.151941
-0.154931
-0.157864
0.0440662
0.0343214
0.0195816
0.00968587
0.00487178
0.00294211
0.00151766
-0.000384832
-0.00246979
-0.00407197
-0.00510166
-0.00600467
-0.00706455
-0.00823277
-0.00940843
-0.0104906
-0.0113993
-0.0122796
-0.0133596
-0.0145627
-0.0156743
-0.0166849
-0.0176832
-0.0187012
-0.0197814
-0.0209775
-0.022264
-0.023572
-0.0248661
-0.0260929
-0.0272069
-0.0282435
-0.0292683
-0.0303133
-0.0314009
-0.0325454
-0.0336977
-0.0348309
-0.0359932
-0.0372029
-0.0384072
-0.0395978
-0.0407941
-0.0420076
-0.0432373
-0.0445075
-0.0458119
-0.0471394
-0.0484937
-0.0498817
-0.0512849
-0.0527198
-0.0541756
-0.055624
-0.0570491
-0.0584853
-0.0600064
-0.0615855
-0.0631576
-0.0647475
-0.0663947
-0.0680517
-0.0697095
-0.0714003
-0.0731478
-0.0748953
-0.0766847
-0.0785159
-0.0803935
-0.0823339
-0.0843277
-0.0863282
-0.0883265
-0.0903602
-0.0924059
-0.0944947
-0.096676
-0.0989134
-0.101169
-0.103438
-0.10577
-0.108119
-0.11053
-0.112981
-0.115488
-0.118045
-0.120628
-0.12328
-0.125961
-0.128704
-0.131459
-0.134285
-0.137099
-0.140035
-0.142962
-0.145944
-0.149022
-0.151941
-0.154932
-0.157865
0.0422414
0.0339016
0.0197563
0.00997509
0.00508148
0.0030247
0.00155446
-0.000343224
-0.00241677
-0.00401993
-0.00506567
-0.00598921
-0.0070629
-0.0082336
-0.00940302
-0.0104791
-0.011389
-0.0122747
-0.0133576
-0.0145599
-0.0156702
-0.016681
-0.0176807
-0.0186997
-0.0197797
-0.0209744
-0.0222598
-0.0235684
-0.0248638
-0.0260911
-0.0272044
-0.0282403
-0.0292654
-0.0303111
-0.0313991
-0.0325436
-0.0336959
-0.0348293
-0.0359919
-0.0372017
-0.0384061
-0.0395969
-0.0407933
-0.0420068
-0.0432365
-0.0445069
-0.0458114
-0.0471389
-0.0484932
-0.0498812
-0.0512845
-0.0527195
-0.0541753
-0.0556237
-0.0570488
-0.0584849
-0.060006
-0.0615851
-0.0631573
-0.0647472
-0.0663944
-0.0680514
-0.0697092
-0.0714
-0.0731476
-0.0748951
-0.0766845
-0.0785156
-0.0803932
-0.0823336
-0.0843275
-0.0863281
-0.0883263
-0.0903601
-0.0924057
-0.0944945
-0.0966758
-0.0989132
-0.101168
-0.103438
-0.10577
-0.108118
-0.11053
-0.112981
-0.115488
-0.118045
-0.120628
-0.12328
-0.125961
-0.128704
-0.131458
-0.134285
-0.137099
-0.140035
-0.142962
-0.145944
-0.149022
-0.151941
-0.154932
-0.157866
0.0404414
0.0334013
0.0199208
0.0102624
0.00529371
0.00310907
0.00158871
-0.000302607
-0.00236057
-0.00396256
-0.00502549
-0.00597259
-0.00706288
-0.00823698
-0.00939885
-0.0104668
-0.0113769
-0.0122683
-0.0133542
-0.0145556
-0.0156649
-0.0166765
-0.0176782
-0.0186993
-0.0197793
-0.0209717
-0.0222552
-0.0235642
-0.0248612
-0.0260889
-0.027201
-0.0282358
-0.0292612
-0.0303081
-0.0313967
-0.032541
-0.0336933
-0.0348273
-0.0359902
-0.0372001
-0.0384046
-0.0395957
-0.0407922
-0.0420057
-0.0432355
-0.044506
-0.0458106
-0.0471382
-0.0484925
-0.0498806
-0.051284
-0.052719
-0.0541749
-0.0556232
-0.0570483
-0.0584844
-0.0600055
-0.0615847
-0.063157
-0.0647469
-0.0663941
-0.0680511
-0.0697089
-0.0713997
-0.0731473
-0.0748948
-0.0766842
-0.0785154
-0.0803929
-0.0823334
-0.0843273
-0.0863279
-0.0883261
-0.0903598
-0.0924055
-0.0944942
-0.0966755
-0.098913
-0.101168
-0.103438
-0.10577
-0.108118
-0.11053
-0.112981
-0.115488
-0.118045
-0.120628
-0.12328
-0.125961
-0.128704
-0.131458
-0.134285
-0.137099
-0.140035
-0.142961
-0.145943
-0.149022
-0.151942
-0.154932
-0.157868
0.0386847
0.0328213
0.0200623
0.0105419
0.00550774
0.00319729
0.00162149
-0.00026368
-0.00230288
-0.00390176
-0.00498252
-0.00595531
-0.00706411
-0.00824237
-0.00939616
-0.0104547
-0.0113644
-0.0122613
-0.0133497
-0.0145498
-0.0156581
-0.0166712
-0.0176758
-0.0186997
-0.0197801
-0.0209699
-0.0222508
-0.0235599
-0.0248586
-0.0260866
-0.027197
-0.02823
-0.0292557
-0.0303042
-0.0313935
-0.0325374
-0.0336898
-0.0348246
-0.0359881
-0.0371981
-0.0384027
-0.0395941
-0.0407909
-0.0420043
-0.0432343
-0.044505
-0.0458097
-0.0471372
-0.0484916
-0.0498798
-0.0512834
-0.0527185
-0.0541743
-0.0556227
-0.0570478
-0.0584839
-0.0600049
-0.0615842
-0.0631566
-0.0647466
-0.0663938
-0.0680508
-0.0697086
-0.0713994
-0.073147
-0.0748944
-0.0766839
-0.0785151
-0.0803926
-0.082333
-0.0843271
-0.0863277
-0.0883258
-0.0903596
-0.0924052
-0.0944939
-0.0966753
-0.0989128
-0.101168
-0.103438
-0.10577
-0.108118
-0.110529
-0.112981
-0.115488
-0.118045
-0.120628
-0.123279
-0.125961
-0.128704
-0.131458
-0.134285
-0.137099
-0.140034
-0.142961
-0.145943
-0.149022
-0.151942
-0.154933
-0.15787
0.0369805
0.0321598
0.0201695
0.0108118
0.00572658
0.00329317
0.0016541
-0.000227667
-0.00224544
-0.00383889
-0.00493758
-0.00593757
-0.00706634
-0.00824941
-0.00939487
-0.0104435
-0.0113521
-0.0122542
-0.0133449
-0.0145431
-0.0156504
-0.0166652
-0.0176733
-0.0187007
-0.0197819
-0.0209691
-0.022247
-0.023556
-0.0248565
-0.0260846
-0.0271927
-0.0282234
-0.0292493
-0.0302996
-0.0313896
-0.0325328
-0.0336852
-0.0348213
-0.0359856
-0.0371956
-0.0384004
-0.0395923
-0.0407892
-0.0420027
-0.0432327
-0.0445037
-0.0458085
-0.0471361
-0.0484903
-0.0498786
-0.0512825
-0.0527178
-0.0541736
-0.055622
-0.0570472
-0.0584833
-0.0600043
-0.0615835
-0.063156
-0.0647463
-0.0663934
-0.0680504
-0.0697083
-0.0713991
-0.0731467
-0.0748941
-0.0766835
-0.0785147
-0.0803922
-0.0823327
-0.0843268
-0.0863275
-0.0883256
-0.0903594
-0.092405
-0.0944936
-0.096675
-0.0989126
-0.101168
-0.103438
-0.105769
-0.108118
-0.110529
-0.112981
-0.115488
-0.118045
-0.120627
-0.123279
-0.12596
-0.128703
-0.131458
-0.134285
-0.137098
-0.140034
-0.142961
-0.145943
-0.149022
-0.151942
-0.154933
-0.157872
0.0353336
0.0314187
0.0202373
0.0110741
0.00595294
0.00339857
0.00168595
-0.000196911
-0.00219026
-0.00377492
-0.004891
-0.00591938
-0.00706945
-0.00825792
-0.00939483
-0.0104328
-0.0113403
-0.0122477
-0.0133404
-0.0145364
-0.0156424
-0.016659
-0.017671
-0.0187024
-0.0197848
-0.0209692
-0.022244
-0.0235529
-0.0248551
-0.0260831
-0.0271883
-0.0282163
-0.0292422
-0.0302945
-0.0313851
-0.0325272
-0.0336797
-0.0348172
-0.0359826
-0.0371927
-0.0383978
-0.0395902
-0.0407873
-0.0420007
-0.043231
-0.0445023
-0.0458072
-0.0471347
-0.0484888
-0.0498771
-0.0512811
-0.0527168
-0.0541727
-0.0556211
-0.0570465
-0.0584827
-0.0600034
-0.0615825
-0.0631554
-0.0647458
-0.066393
-0.06805
-0.069708
-0.0713989
-0.0731464
-0.0748938
-0.0766832
-0.0785144
-0.0803917
-0.0823322
-0.0843266
-0.0863272
-0.0883253
-0.0903591
-0.0924047
-0.0944933
-0.0966746
-0.0989123
-0.101168
-0.103437
-0.105769
-0.108118
-0.110529
-0.11298
-0.115487
-0.118045
-0.120627
-0.123279
-0.12596
-0.128703
-0.131458
-0.134285
-0.137098
-0.140034
-0.142961
-0.145943
-0.149022
-0.151942
-0.154934
-0.157875
0.0337488
0.0306071
0.0202644
0.0113269
0.00618315
0.0035123
0.00171644
-0.000172725
-0.00213839
-0.00371009
-0.00484266
-0.00590068
-0.00707341
-0.0082678
-0.00939585
-0.0104228
-0.0113291
-0.0122422
-0.0133368
-0.01453
-0.0156343
-0.0166527
-0.0176689
-0.0187048
-0.0197887
-0.0209705
-0.0222418
-0.0235505
-0.0248546
-0.0260822
-0.0271841
-0.0282088