/*--------------------------------*- C++ -*----------------------------------*\
| =========                 |                                                 |
| \\      /  F ield         | OpenFOAM: The Open Source CFD Toolbox           |
|  \\    /   O peration     | Version:  2506                                  |
|   \\  /    A nd           | Website:  www.openfoam.com                      |
|    \\/     M anipulation  |                                                 |
\*---------------------------------------------------------------------------*/
FoamFile
{
    version     2.0;
    format      ascii;
    arch        "LSB;label=32;scalar=64";
    class       surfaceScalarField;
    location    "6.15";
    object      phi;
}
// * * * * * * * * * * * * * * * * * * * * * * * * * * * * * * * * * * * * * //

dimensions      [0 3 -1 0 0 0 0];

oriented        oriented;

internalField   nonuniform List<scalar> 
19000
(
1.14989e-06
-6.09945e-07
1.16695e-06
1.18141e-08
1.15897e-06
7.91324e-07
1.14387e-06
3.23249e-07
1.15073e-06
2.84572e-07
1.15759e-06
-1.76365e-06
1.2151e-06
1.10409e-07
1.17131e-06
-1.54902e-06
1.22345e-06
1.61961e-06
1.18721e-06
6.16192e-07
1.17517e-06
7.38068e-07
1.16852e-06
5.99789e-07
1.13394e-06
-6.90277e-08
1.14374e-06
5.17204e-08
1.13651e-06
-5.22238e-07
1.12698e-06
-5.81778e-07
1.13641e-06
-5.64447e-07
1.09937e-06
-8.62811e-07
1.13078e-06
-3.1492e-07
-8.88591e-07
1.02859e-06
1.20788e-06
-5.93567e-07
1.22392e-06
-4.22229e-09
1.21527e-06
7.99978e-07
1.20016e-06
3.38349e-07
1.20181e-06
2.8293e-07
1.20823e-06
-1.77007e-06
1.26643e-06
5.22002e-08
1.2307e-06
-1.51329e-06
1.26853e-06
1.58178e-06
1.25138e-06
6.33342e-07
1.21853e-06
7.70923e-07
1.2308e-06
5.8751e-07
1.19311e-06
-3.13349e-08
1.20904e-06
3.57918e-08
1.19827e-06
-5.11472e-07
1.20165e-06
-5.85149e-07
1.18911e-06
-5.51908e-07
1.17638e-06
-8.50081e-07
1.17791e-06
-3.16455e-07
-8.29876e-07
1.1192e-06
1.26891e-06
-5.79694e-07
1.28521e-06
-2.05265e-08
1.27734e-06
8.07854e-07
1.2593e-06
3.56383e-07
1.2566e-06
2.85631e-07
1.2613e-06
-1.77477e-06
1.31977e-06
-6.26661e-09
1.29058e-06
-1.4841e-06
1.31837e-06
1.55399e-06
1.31467e-06
6.3704e-07
1.27646e-06
8.0913e-07
1.28632e-06
5.77649e-07
1.26511e-06
-1.01243e-08
1.26873e-06
3.21736e-08
1.2638e-06
-5.06539e-07
1.25928e-06
-5.80625e-07
1.24985e-06
-5.42479e-07
1.2368e-06
-8.37032e-07
1.24153e-06
-3.21184e-07
-7.87316e-07
1.19897e-06
1.33283e-06
-5.68424e-07
1.34918e-06
-3.68753e-08
1.34354e-06
8.13493e-07
1.32243e-06
3.77498e-07
1.3156e-06
2.92458e-07
1.31779e-06
-1.77696e-06
1.37457e-06
-6.30498e-08
1.35461e-06
-1.46414e-06
1.37462e-06
1.53398e-06
1.3786e-06
6.33061e-07
1.34752e-06
8.40202e-07
1.35036e-06
5.74813e-07
1.33936e-06
8.76008e-10
1.34117e-06
3.03648e-08
1.33259e-06
-4.97956e-07
1.3278e-06
-5.7584e-07
1.31561e-06
-5.30289e-07
1.29978e-06
-8.21203e-07
1.30311e-06
-3.24517e-07
-7.43093e-07
1.25889e-06
1.39951e-06
-5.5958e-07
1.41468e-06
-5.20415e-08
1.41196e-06
8.16205e-07
1.3899e-06
3.99563e-07
1.38012e-06
3.0224e-07
1.37822e-06
-1.77506e-06
1.43122e-06
-1.16049e-07
1.42041e-06
-1.45333e-06
1.43843e-06
1.51596e-06
1.44511e-06
6.26381e-07
1.42517e-06
8.60141e-07
1.42321e-06
5.76774e-07
1.4155e-06
8.59083e-09
1.41676e-06
2.91049e-08
1.40402e-06
-4.85224e-07
1.39754e-06
-5.69358e-07
1.38411e-06
-5.16861e-07
1.36531e-06
-8.02397e-07
1.36935e-06
-3.2856e-07
-6.98229e-07
1.32449e-06
1.46873e-06
-5.52637e-07
1.48134e-06
-6.46488e-08
1.48145e-06
8.16093e-07
1.46191e-06
4.19107e-07
1.45078e-06
3.13366e-07
1.44312e-06
-1.7674e-06
1.48992e-06
-1.62853e-07
1.48629e-06
-1.4497e-06
1.50801e-06
1.49425e-06
1.51518e-06
6.19213e-07
1.50462e-06
8.70693e-07
1.50035e-06
5.81044e-07
1.49314e-06
1.58061e-08
1.49361e-06
2.8636e-08
1.47813e-06
-4.69748e-07
1.46922e-06
-5.60447e-07
1.45485e-06
-5.02494e-07
1.43311e-06
-7.80655e-07
1.43749e-06
-3.32939e-07
-6.53628e-07
1.39289e-06
1.54022e-06
-5.46643e-07
1.54967e-06
-7.40937e-08
1.55232e-06
8.13444e-07
1.53834e-06
4.33083e-07
1.5274e-06
3.2431e-07
1.513e-06
-1.753e-06
1.55099e-06
-2.00849e-07
1.55174e-06
-1.45044e-06
1.58121e-06
1.46478e-06
1.58807e-06
6.12355e-07
1.58407e-06
8.74696e-07
1.57901e-06
5.86099e-07
1.57217e-06
2.26425e-08
1.57215e-06
2.86551e-08
1.55527e-06
-4.52862e-07
1.54418e-06
-5.49362e-07
1.52904e-06
-4.87347e-07
1.50431e-06
-7.55925e-07
1.50849e-06
-3.37122e-07
-6.09941e-07
1.4648e-06
1.61393e-06
-5.40442e-07
1.62063e-06
-8.07992e-08
1.62579e-06
8.08285e-07
1.61877e-06
4.40109e-07
1.60906e-06
3.34017e-07
1.5881e-06
-1.73204e-06
1.61498e-06
-2.27732e-07
1.61707e-06
-1.45253e-06
1.65617e-06
1.42568e-06
1.66215e-06
6.06374e-07
1.66307e-06
8.73781e-07
1.65843e-06
5.90738e-07
1.65273e-06
2.83427e-08
1.65278e-06
2.8604e-08
1.6354e-06
-4.35483e-07
1.62248e-06
-5.36445e-07
1.60701e-06
-4.71879e-07
1.57955e-06
-7.28458e-07
1.58287e-06
-3.40444e-07
-5.6735e-07
1.54028e-06
1.69021e-06
-5.33079e-07
1.69523e-06
-8.5821e-08
1.70309e-06
8.00425e-07
1.70266e-06
4.40545e-07
1.69464e-06
3.42039e-07
1.6682e-06
-1.70561e-06
1.68288e-06
-2.42407e-07
1.68324e-06
-1.4529e-06
1.73149e-06
1.37743e-06
1.73622e-06
6.01651e-07
1.742e-06
8.67993e-07
1.73899e-06
5.93748e-07
1.73526e-06
3.2074e-08
1.73577e-06
2.81003e-08
1.71857e-06
-4.18289e-07
1.70426e-06
-5.22129e-07
1.68914e-06
-4.56764e-07
1.65949e-06
-6.98808e-07
1.66137e-06
-3.42324e-07
-5.25664e-07
1.61969e-06
1.76973e-06
-5.24084e-07
1.77416e-06
-9.02502e-08
1.78483e-06
7.89747e-07
1.7896e-06
4.35782e-07
1.7832e-06
3.48437e-07
1.75276e-06
-1.67517e-06
1.75603e-06
-2.45673e-07
1.75189e-06
-1.44876e-06
1.80693e-06
1.32238e-06
1.81054e-06
5.98049e-07
1.82227e-06
8.56262e-07
1.82176e-06
5.94254e-07
1.82037e-06
3.34672e-08
1.82133e-06
2.71354e-08
1.80454e-06
-4.01493e-07
1.78922e-06
-5.06817e-07
1.77506e-06
-4.42598e-07
1.74408e-06
-6.67826e-07
1.74425e-06
-3.42501e-07
-4.84841e-07
1.70343e-06
1.85317e-06
-5.13507e-07
1.85771e-06
-9.47865e-08
1.87104e-06
7.76412e-07
1.8794e-06
4.27429e-07
1.87429e-06
3.53541e-07
1.84121e-06
-1.64209e-06
1.83572e-06
-2.40179e-07
1.82521e-06
-1.43825e-06
1.88408e-06
1.26351e-06
1.88721e-06
5.94921e-07
1.90597e-06
8.37497e-07
1.90805e-06
5.92183e-07
1.90853e-06
3.29836e-08
1.9096e-06
2.60667e-08
1.89308e-06
-3.84977e-07
1.87708e-06
-4.90814e-07
1.86418e-06
-4.29699e-07
1.83288e-06
-6.36524e-07
1.83136e-06
-3.40985e-07
-4.45293e-07
1.79181e-06
1.9411e-06
-5.01766e-07
1.94591e-06
-9.95949e-08
1.96144e-06
7.60882e-07
1.97206e-06
4.16802e-07
1.96795e-06
3.5765e-07
1.9332e-06
-1.60734e-06
1.92261e-06
-2.29586e-07
1.90537e-06
-1.42101e-06
1.96581e-06
1.20307e-06
1.96917e-06
5.9156e-07
1.99491e-06
8.11759e-07
1.99868e-06
5.88414e-07
1.9999e-06
3.1761e-08
2.00049e-06
2.54746e-08
1.98409e-06
-3.68575e-07
1.96766e-06
-4.74382e-07
1.95594e-06
-4.17984e-07
1.92529e-06
-6.05873e-07
1.92227e-06
-3.37961e-07
-4.07822e-07
1.88479e-06
2.03386e-06
-4.89435e-07
2.03865e-06
-1.04388e-07
2.05568e-06
7.43852e-07
2.06772e-06
4.04767e-07
2.06459e-06
3.60778e-07
2.02868e-06
-1.57143e-06
2.0165e-06
-2.17405e-07
1.99347e-06
-1.39798e-06
2.05447e-06
1.14207e-06
2.05837e-06
5.87662e-07
2.08945e-06
7.8068e-07
2.09349e-06
5.84373e-07
2.09431e-06
3.09387e-08
2.09394e-06
2.58458e-08
2.07769e-06
-3.52321e-07
2.06118e-06
-4.57875e-07
2.0502e-06
-4.07005e-07
2.02097e-06
-5.76641e-07
2.01665e-06
-3.33637e-07
-3.73284e-07
1.98211e-06
2.13161e-06
-4.77047e-07
2.13587e-06
-1.08648e-07
2.15359e-06
7.26134e-07
2.16656e-06
3.91795e-07
2.16475e-06
3.62589e-07
2.12792e-06
-1.5346e-06
2.11662e-06
-2.06101e-07
2.08911e-06
-1.37047e-06
2.15038e-06
1.0808e-06
2.15462e-06
5.83422e-07
2.18857e-06
7.46735e-07
2.19164e-06
5.81299e-07
2.19164e-06
3.09426e-08
2.19023e-06
2.72531e-08
2.17435e-06
-3.36443e-07
2.1583e-06
-4.41821e-07
2.14737e-06
-3.96082e-07
2.12001e-06
-5.49273e-07
2.11463e-06
-3.28258e-07
-3.42162e-07
2.0835e-06
2.23439e-06
-4.64953e-07
2.23764e-06
-1.11899e-07
2.25529e-06
7.08487e-07
2.26899e-06
3.78099e-07
2.269e-06
3.62575e-07
2.23134e-06
-1.49694e-06
2.2221e-06
-1.96864e-07
2.19083e-06
-1.3392e-06
2.25191e-06
1.01972e-06
2.25604e-06
5.79291e-07
2.29082e-06
7.11959e-07
2.29246e-06
5.79656e-07
2.29209e-06
3.13077e-08
2.29011e-06
2.92344e-08
2.27478e-06
-3.21108e-07
2.2598e-06
-4.26841e-07
2.24826e-06
-3.8454e-07
2.22281e-06
-5.23828e-07
2.21673e-06
-3.22178e-07
-3.14349e-07
2.18892e-06
2.34218e-06
-4.53262e-07
2.3442e-06
-1.13913e-07
2.36122e-06
6.91461e-07
2.37557e-06
3.63757e-07
2.37779e-06
3.60353e-07
2.33932e-06
-1.45847e-06
2.3324e-06
-1.89946e-07
2.29719e-06
-1.30398e-06
2.35715e-06
9.59752e-07
2.36077e-06
5.75672e-07
2.39559e-06
6.77137e-07
2.3962e-06
5.79044e-07
2.39636e-06
3.11516e-08
2.39465e-06
3.09503e-08
2.37974e-06
-3.06207e-07
2.36637e-06
-4.13464e-07
2.35374e-06
-3.7191e-07
2.32994e-06
-5.00035e-07
2.32358e-06
-3.15814e-07
-2.89331e-07
2.29856e-06
2.45502e-06
-4.41883e-07
2.45589e-06
-1.14785e-07
2.47202e-06
6.75325e-07
2.48698e-06
3.48798e-07
2.49147e-06
3.55869e-07
2.45219e-06
-1.41919e-06
2.4474e-06
-1.8516e-07
2.40766e-06
-1.26423e-06
2.46553e-06
9.01878e-07
2.46841e-06
5.72795e-07
2.50356e-06
6.41984e-07
2.50402e-06
5.7858e-07
2.50532e-06
2.98513e-08
2.50479e-06
3.14893e-08
2.48988e-06
-2.91304e-07
2.47839e-06
-4.01972e-07
2.46453e-06
-3.58048e-07
2.44186e-06
-4.77366e-07
2.43563e-06
-3.09584e-07
-2.66524e-07
2.41282e-06
2.57303e-06
-4.30616e-07
2.5731e-06
-1.14859e-07
2.5883e-06
6.60127e-07
2.60385e-06
3.33246e-07
2.61032e-06
3.494e-07
2.57018e-06
-1.37906e-06
2.56726e-06
-1.8223e-07
2.52264e-06
-1.21962e-06
2.57799e-06
8.46525e-07
2.58004e-06
5.70743e-07
2.61613e-06
6.05894e-07
2.61734e-06
5.77369e-07
2.61978e-06
2.74109e-08
2.62113e-06
3.01403e-08
2.60565e-06
-2.75823e-07
2.59601e-06
-3.92326e-07
2.58111e-06
-3.43156e-07
2.55886e-06
-4.55113e-07
2.55318e-06
-3.03901e-07
-2.45509e-07
2.53216e-06
2.69646e-06
-4.19245e-07
2.69618e-06
-1.14581e-07
2.7105e-06
6.45804e-07
2.7266e-06
3.17149e-07
2.73461e-06
3.41391e-07
2.69355e-06
-1.338e-06
2.69226e-06
-1.80936e-07
2.64297e-06
-1.17033e-06
2.69611e-06
7.93383e-07
2.69732e-06
5.69534e-07
2.73466e-06
5.68553e-07
2.73727e-06
5.74764e-07
2.74028e-06
2.43993e-08
2.74394e-06
2.64797e-08
2.7274e-06
-2.59278e-07
2.71924e-06
-3.84169e-07
2.70384e-06
-3.27753e-07
2.68126e-06
-4.32534e-07
2.67636e-06
-2.99006e-07
-2.26224e-07
2.65708e-06
2.82561e-06
-4.0759e-07
2.82541e-06
-1.14382e-07
2.83894e-06
6.32275e-07
2.85551e-06
3.00579e-07
2.86462e-06
3.32289e-07
2.82257e-06
-1.29595e-06
2.82276e-06
-1.81129e-07
2.76943e-06
-1.117e-06
2.82113e-06
7.41682e-07
2.82154e-06
5.69128e-07
2.85997e-06
5.30118e-07
2.86438e-06
5.70358e-07
2.86712e-06
2.16634e-08
2.87326e-06
2.03407e-08
2.8554e-06
-2.41418e-07
2.84813e-06
-3.76904e-07
2.83295e-06
-3.12572e-07
2.80938e-06
-4.08964e-07
2.80527e-06
-2.94897e-07
-2.08908e-07
2.78796e-06
2.96082e-06
-3.95516e-07
2.96106e-06
-1.14616e-07
2.97386e-06
6.19468e-07
2.99081e-06
2.83632e-07
3.00066e-06
3.22436e-07
2.95753e-06
-1.25282e-06
2.95912e-06
-1.82724e-07
2.90254e-06
-1.06042e-06
2.95363e-06
6.90591e-07
2.95337e-06
5.69393e-07
2.99239e-06
4.91096e-07
2.99891e-06
5.63832e-07
3.00049e-06
2.00846e-08
3.00909e-06
1.17439e-08
2.98995e-06
-2.22273e-07
2.98281e-06
-3.69768e-07
2.96864e-06
-2.98405e-07
2.94367e-06
-3.83996e-07
2.94003e-06
-2.91254e-07
-1.93979e-07
2.9251e-06
3.10242e-06
-3.82925e-07
3.10334e-06
-1.15544e-07
3.11549e-06
6.07321e-07
3.13271e-06
2.66416e-07
3.14311e-06
3.12038e-07
3.09877e-06
-1.20848e-06
3.10172e-06
-1.85668e-07
3.04262e-06
-1.00132e-06
3.09373e-06
6.39481e-07
3.09305e-06
5.70074e-07
3.13196e-06
4.52182e-07
3.14095e-06
5.54842e-07
3.14059e-06
2.0445e-08
3.15147e-06
8.67316e-10
3.13137e-06
-2.0218e-07
3.12347e-06
-3.61868e-07
3.11105e-06
-2.85978e-07
3.08469e-06
-3.57645e-07
3.0808e-06
-2.8736e-07
-1.81914e-07
3.06874e-06
3.25074e-06
-3.69753e-07
3.25253e-06
-1.17342e-07
3.26409e-06
5.95766e-07
3.28146e-06
2.49049e-07
3.29232e-06
3.01172e-07
3.24666e-06
-1.16282e-06
3.25091e-06
-1.89919e-07
3.18992e-06
-9.40332e-07
3.24138e-06
5.88029e-07
3.24066e-06
5.70792e-07
3.2787e-06
4.14143e-07
3.29054e-06
5.43001e-07
3.28765e-06
2.33321e-08
3.30046e-06
-1.19378e-08
3.28001e-06
-1.81735e-07
3.27043e-06
-3.52283e-07
3.26028e-06
-2.75832e-07
3.23306e-06
-3.30424e-07
3.22786e-06
-2.82162e-07
-1.73088e-07
3.21904e-06
3.40614e-06
-3.55958e-07
3.40889e-06
-1.20094e-07
3.41993e-06
5.84721e-07
3.43733e-06
2.31656e-07
3.4487e-06
2.89804e-07
3.40158e-06
-1.11571e-06
3.40709e-06
-1.9543e-07
3.34473e-06
-8.77972e-07
3.39655e-06
5.36215e-07
3.39627e-06
5.71064e-07
3.43267e-06
3.77745e-07
3.44773e-06
5.27939e-07
3.442e-06
2.90697e-08
3.4562e-06
-2.61383e-08
3.43619e-06
-1.61726e-07
3.42411e-06
-3.40208e-07
3.41646e-06
-2.68175e-07
3.38921e-06
-3.03178e-07
3.38166e-06
-2.74616e-07
-1.67553e-07
3.37613e-06
3.56898e-06
-3.41527e-07
3.57269e-06
-1.23809e-07
3.58333e-06
5.74084e-07
3.60061e-06
2.14374e-07
3.6126e-06
2.77813e-07
3.56392e-06
-1.06702e-06
3.57062e-06
-2.02134e-07
3.50736e-06
-8.14712e-07
3.55928e-06
4.84299e-07
3.56003e-06
5.70314e-07
3.59403e-06
3.43739e-07
3.61263e-06
5.09346e-07
3.60402e-06
3.76743e-08
3.61889e-06
-4.10036e-08
3.60019e-06
-1.43029e-07
3.58511e-06
-3.25132e-07
3.57967e-06
-2.62729e-07
3.55344e-06
-2.76955e-07
3.54291e-06
-2.64087e-07
-1.64763e-07
3.54012e-06
3.73965e-06
-3.26468e-07
3.74425e-06
-1.28415e-07
3.75461e-06
5.63732e-07
3.77163e-06
1.97345e-07
3.78442e-06
2.65028e-07
3.73407e-06
-1.01667e-06
3.74186e-06
-2.09931e-07
3.67817e-06
-7.51017e-07
3.72972e-06
4.32752e-07
3.73211e-06
5.6792e-07
3.76303e-06
3.12825e-07
3.78533e-06
4.8704e-07
3.77417e-06
4.88334e-08
3.78882e-06
-5.5648e-08
3.77229e-06
-1.26499e-07
3.75405e-06
-3.06895e-07
3.75012e-06
-2.58797e-07
3.72596e-06
-2.52795e-07
3.71235e-06
-2.50479e-07
-1.63642e-07
3.71123e-06
3.91853e-06
-3.10814e-07
3.9239e-06
-1.33784e-07
3.93412e-06
5.53518e-07
3.95073e-06
1.80733e-07
3.96449e-06
2.51267e-07
3.91244e-06
-9.64619e-07
3.92117e-06
-2.18668e-07
3.85756e-06
-6.87398e-07
3.9081e-06
3.82208e-07
3.91277e-06
5.63245e-07
3.94002e-06
2.85578e-07
3.96597e-06
4.61089e-07
3.95291e-06
6.1897e-08
3.96637e-06
-6.91099e-08
3.95267e-06
-1.12803e-07
3.93157e-06
-2.8579e-07
3.92811e-06
-2.55341e-07
3.90692e-06
-2.31597e-07
3.89059e-06
-2.34159e-07
-1.62877e-07
3.88983e-06
4.10605e-06
-2.94618e-07
4.11202e-06
-1.39749e-07
4.12227e-06
5.43267e-07
4.13827e-06
1.64731e-07
4.15317e-06
2.36363e-07
4.09946e-06
-9.10902e-07
4.10891e-06
-2.28117e-07
4.04595e-06
-6.24445e-07
4.09475e-06
3.33409e-07
4.10233e-06
5.55667e-07
4.12548e-06
2.62433e-07
4.15475e-06
4.31817e-07
4.14066e-06
7.59867e-08
4.15199e-06
-8.04451e-08
4.14153e-06
-1.0234e-07
4.1182e-06
-2.62465e-07
4.1141e-06
-2.51239e-07
4.09638e-06
-2.13877e-07
4.07822e-06
-2.15998e-07
-1.61114e-07
4.07646e-06
4.30263e-06
-2.77946e-07
4.30901e-06
-1.46125e-07
4.3195e-06
5.32778e-07
4.33465e-06
1.49573e-07
4.35082e-06
2.20194e-07
4.29557e-06
-8.55651e-07
4.30543e-06
-2.37974e-07
4.2438e-06
-5.62817e-07
4.29009e-06
2.87125e-07
4.30112e-06
5.44632e-07
4.31993e-06
2.43622e-07
4.35192e-06
3.99834e-07
4.33781e-06
9.00961e-08
4.34617e-06
-8.88084e-08
4.33899e-06
-9.51617e-08
4.31438e-06
-2.37856e-07
4.30863e-06
-2.45485e-07
4.29447e-06
-1.99724e-07
4.27558e-06
-1.97108e-07
-1.57332e-07
4.2718e-06
4.50871e-06
-2.6088e-07
4.51531e-06
-1.52732e-07
4.52627e-06
5.21824e-07
4.54031e-06
1.35531e-07
4.5578e-06
2.02704e-07
4.50126e-06
-7.99111e-07
4.51113e-06
-2.47843e-07
4.45155e-06
-5.03235e-07
4.49457e-06
2.44103e-07
4.50948e-06
5.29722e-07
4.52401e-06
2.29092e-07
4.55782e-06
3.66026e-07
4.5447e-06
1.03217e-07
4.54942e-06
-9.35355e-08
4.54529e-06
-9.10274e-08
4.5204e-06
-2.12967e-07
4.51229e-06
-2.37378e-07
4.50138e-06
-1.88809e-07
4.4829e-06
-1.78631e-07
-1.51074e-07
4.47664e-06
4.72474e-06
-2.43509e-07
4.73141e-06
-1.59401e-07
4.74309e-06
5.1015e-07
4.75571e-06
1.22912e-07
4.7745e-06
1.8391e-07
4.71703e-06
-7.41642e-07
4.72642e-06
-2.57237e-07
4.66964e-06
-4.46451e-07
4.70872e-06
2.0502e-07
4.72771e-06
5.10732e-07
4.73833e-06
2.18475e-07
4.77288e-06
3.3148e-07
4.76165e-06
1.14441e-07
4.76236e-06
-9.42414e-08
4.76077e-06
-8.94376e-08
4.73657e-06
-1.88766e-07
4.72585e-06
-2.26659e-07
4.71742e-06
-1.80384e-07
4.70042e-06
-1.61626e-07
-1.42415e-07
4.69176e-06
4.95122e-06
-2.2593e-07
4.95779e-06
-1.65971e-07
4.97045e-06
4.9749e-07
4.98132e-06
1.12042e-07
5.00133e-06
1.63899e-07
4.94342e-06
-6.83729e-07
4.95177e-06
-2.6559e-07
4.89852e-06
-3.93201e-07
4.93311e-06
1.70426e-07
4.95615e-06
4.87695e-07
4.96346e-06
2.11168e-07
4.99764e-06
2.97301e-07
4.989e-06
1.23081e-07
4.98571e-06
-9.09539e-08
4.98586e-06
-8.95859e-08
4.96336e-06
-1.66263e-07
4.95008e-06
-2.13387e-07
4.94311e-06
-1.73415e-07
4.92836e-06
-1.46867e-07
-1.31834e-07
4.91778e-06
5.18863e-06
-2.08246e-07
5.19494e-06
-1.72275e-07
5.20884e-06
4.83589e-07
5.21768e-06
1.03196e-07
5.23874e-06
1.42839e-07
5.18097e-06
-6.2596e-07
5.18768e-06
-2.72298e-07
5.13862e-06
-3.44138e-07
5.16837e-06
1.40678e-07
5.19508e-06
4.60983e-07
5.19994e-06
2.06304e-07
5.23269e-06
2.6455e-07
5.22706e-06
1.28715e-07
5.22024e-06
-8.41324e-08
5.22115e-06
-9.05014e-08
5.20107e-06
-1.46179e-07
5.18571e-06
-1.98028e-07
5.17906e-06
-1.66764e-07
5.16691e-06
-1.34723e-07
-1.20213e-07
5.15529e-06
5.43751e-06
-1.90569e-07
5.44337e-06
-1.78134e-07
5.45871e-06
4.68249e-07
5.46535e-06
9.65548e-08
5.48722e-06
1.20972e-07
5.43025e-06
-5.68995e-07
5.43471e-06
-2.76757e-07
5.39036e-06
-2.99789e-07
5.41515e-06
1.1589e-07
5.44485e-06
4.31281e-07
5.44827e-06
2.02886e-07
5.47871e-06
2.34111e-07
5.47622e-06
1.31205e-07
5.46666e-06
-7.45657e-08
5.46736e-06
-9.12001e-08
5.45003e-06
-1.28858e-07
5.4333e-06
-1.81291e-07
5.42609e-06
-1.59554e-07
5.41635e-06
-1.24982e-07
-1.08645e-07
5.40478e-06
5.69841e-06
-1.7302e-07
5.70362e-06
-1.83346e-07
5.72053e-06
4.51341e-07
5.72493e-06
9.21492e-08
5.74727e-06
9.86402e-08
5.69183e-06
-5.1356e-07
5.69347e-06
-2.78394e-07
5.65419e-06
-2.60507e-07
5.6742e-06
9.58744e-08
5.70598e-06
3.99498e-07
5.70888e-06
1.9999e-07
5.73643e-06
2.06562e-07
5.73694e-06
1.30691e-07
5.72548e-06
-6.3107e-08
5.72523e-06
-9.09484e-08
5.71065e-06
-1.1428e-07
5.69333e-06
-1.63971e-07
5.68503e-06
-1.51252e-07
5.6771e-06
-1.17049e-07
-9.80549e-08
5.66651e-06
5.9719e-06
-1.55731e-07
5.97624e-06
-1.87677e-07
5.99477e-06
4.32806e-07
5.99707e-06
8.98498e-08
6.01943e-06
7.6277e-08
5.96623e-06
-4.60355e-07
5.9646e-06
-2.76766e-07
5.93053e-06
-2.26433e-07
5.9462e-06
8.01983e-08
5.97909e-06
3.66611e-07
5.98219e-06
1.96885e-07
6.00656e-06
1.82197e-07
6.00975e-06
1.27504e-07
5.99723e-06
-5.05863e-08
5.99555e-06
-8.92695e-08
5.98343e-06
-1.02159e-07
5.9662e-06
-1.46745e-07
5.95677e-06
-1.41826e-07
5.94976e-06
-1.10032e-07
-8.90476e-08
5.94075e-06
6.25861e-06
-1.38851e-07
6.26181e-06
-1.90879e-07
6.28199e-06
4.12625e-07
6.28243e-06
8.94062e-08
6.30434e-06
5.43706e-08
6.254e-06
-4.10015e-07
6.2488e-06
-2.71568e-07
6.21986e-06
-1.97495e-07
6.23182e-06
6.82383e-08
6.26486e-06
3.33573e-07
6.26871e-06
1.9304e-07
6.28984e-06
1.61068e-07
6.29522e-06
1.22118e-07
6.28243e-06
-3.77893e-08
6.27906e-06
-8.59026e-08
6.26897e-06
-9.2072e-08
6.25235e-06
-1.30123e-07
6.24202e-06
-1.31493e-07
6.23523e-06
-1.03243e-07
-8.15568e-08
6.22774e-06
6.55915e-06
-1.22534e-07
6.56096e-06
-1.92683e-07
6.58286e-06
3.90722e-07
6.58169e-06
9.05779e-08
6.60265e-06
3.34066e-08
6.55571e-06
-3.63075e-07
6.54686e-06
-2.62711e-07
6.52272e-06
-1.73364e-07
6.53168e-06
5.92817e-08
6.56405e-06
3.01201e-07
6.56897e-06
1.88125e-07
6.58693e-06
1.43102e-07
6.594e-06
1.15052e-07
6.58157e-06
-2.53621e-08
6.5765e-06
-8.08245e-08
6.56797e-06
-8.35474e-08
6.5523e-06
-1.14449e-07
6.54138e-06
-1.20581e-07
6.53445e-06
-9.63101e-08
-7.50822e-08
6.52798e-06
6.8742e-06
-1.06948e-07
6.87434e-06
-1.92816e-07
6.89806e-06
3.66997e-07
6.8955e-06
9.31391e-08
6.91504e-06
1.38702e-08
6.87198e-06
-3.20014e-07
6.85961e-06
-2.50347e-07
6.83966e-06
-1.53411e-07
6.84641e-06
5.25352e-08
6.87744e-06
2.70171e-07
6.88356e-06
1.81996e-07
6.89857e-06
1.28093e-07
6.90675e-06
1.06878e-07
6.89519e-06
-1.38065e-08
6.88856e-06
-7.41966e-08
6.88113e-06
-7.61131e-08
6.86665e-06
-9.9969e-08
6.85541e-06
-1.09341e-07
6.84831e-06
-8.92144e-08
-6.90428e-08
6.84228e-06
7.20445e-06
-9.22592e-08
7.20265e-06
-1.91014e-07
7.22826e-06
3.41386e-07
7.2245e-06
9.6897e-08
7.2422e-06
-3.83404e-09
7.20341e-06
-2.81224e-07
7.18792e-06
-2.34857e-07
7.17129e-06
-1.36776e-07
7.17662e-06
4.72023e-08
7.20576e-06
2.41033e-07
7.2131e-06
1.74656e-07
7.22548e-06
1.15712e-07
7.23412e-06
9.82389e-08
7.22389e-06
-3.57181e-09
7.21591e-06
-6.62221e-08
7.20923e-06
-6.94278e-08
7.19607e-06
-8.68186e-08
7.18465e-06
-9.79125e-08
7.1775e-06
-8.20646e-08
-6.31084e-08
7.17156e-06
7.5506e-06
-7.86299e-08
7.54661e-06
-1.87028e-07
7.57407e-06
3.13923e-07
7.56939e-06
1.01584e-07
7.58484e-06
-1.92888e-08
7.55068e-06
-2.47059e-07
7.53256e-06
-2.16741e-07
7.51836e-06
-1.2258e-07
7.52287e-06
4.26994e-08
7.54979e-06
2.14111e-07
7.5583e-06
1.66142e-07
7.56836e-06
1.05656e-07
7.57687e-06
8.97311e-08
7.56817e-06
5.12851e-09
7.55928e-06
-5.73327e-08
7.55297e-06
-6.31174e-08
7.54127e-06
-7.51237e-08
7.52973e-06
-8.63746e-08
7.52274e-06
-7.50685e-08
-5.71482e-08
7.51678e-06
7.91338e-06
-6.6203e-08
7.90694e-06
-1.80586e-07
7.93612e-06
2.84749e-07
7.93097e-06
1.06735e-07
7.94372e-06
-3.20457e-08
7.91436e-06
-2.17696e-07
7.89431e-06
-1.96692e-07
7.88171e-06
-1.09982e-07
7.88573e-06
3.86787e-08
7.91031e-06
1.89534e-07
7.91984e-06
1.56612e-07
7.9279e-06
9.76015e-08
7.93574e-06
8.18833e-08
7.92862e-06
1.22551e-08
7.91932e-06
-4.80346e-08
7.9131e-06
-5.6904e-08
7.90286e-06
-6.48779e-08
7.89157e-06
-7.50892e-08
7.88446e-06
-6.79571e-08
-5.1439e-08
7.87875e-06
8.29356e-06
-5.50793e-08
8.2844e-06
-1.71429e-07
8.31499e-06
2.54159e-07
8.31014e-06
1.11587e-07
8.31972e-06
-4.16239e-08
8.29499e-06
-1.92972e-07
8.27393e-06
-1.75629e-07
8.2622e-06
-9.82473e-08
8.26584e-06
3.50342e-08
8.2881e-06
1.67273e-07
8.29828e-06
1.46435e-07
8.30475e-06
9.11283e-08
8.31158e-06
7.50569e-08
8.30584e-06
1.79956e-08
8.29664e-06
-3.88349e-08
8.29041e-06
-5.06734e-08
8.28157e-06
-5.60414e-08
8.27081e-06
-6.43263e-08
8.26355e-06
-6.0699e-08
-4.61151e-08
8.25823e-06
8.69189e-06
-4.5305e-08
8.68006e-06
-1.59606e-07
8.71139e-06
2.22833e-07
8.70782e-06
1.15159e-07
8.71362e-06
-4.74252e-08
8.69304e-06
-1.72392e-07
8.67205e-06
-1.54639e-07
8.66071e-06
-8.69105e-08
8.66387e-06
3.18807e-08
8.68378e-06
1.4736e-07
8.69416e-06
1.36057e-07
8.69942e-06
8.5864e-08
8.70512e-06
6.93593e-08
8.70059e-06
2.2529e-08
8.6919e-06
-3.01516e-08
8.68566e-06
-4.44357e-08
8.6781e-06
-4.84815e-08
8.66818e-06
-5.44049e-08
8.66087e-06
-5.33886e-08
-4.10107e-08
8.65577e-06
9.10917e-06
-3.6859e-08
9.0952e-06
-1.45635e-07
9.12614e-06
1.91896e-07
9.12491e-06
1.16387e-07
9.12646e-06
-4.89786e-08
9.10917e-06
-1.551e-07
9.0893e-06
-1.34769e-07
9.07802e-06
-7.56236e-08
9.08045e-06
2.94494e-08
9.09781e-06
1.3e-07
9.10794e-06
1.2592e-07
9.11246e-06
8.13506e-08
9.11736e-06
6.44594e-08
9.11391e-06
2.59731e-08
9.1059e-06
-2.21408e-08
9.0998e-06
-3.83329e-08
9.09328e-06
-4.19626e-08
9.08449e-06
-4.56184e-08
9.07723e-06
-4.61264e-08
-3.59742e-08
9.0722e-06
9.54625e-06
-2.96514e-08
9.53098e-06
-1.30359e-07
9.56019e-06
1.62682e-07
9.5623e-06
1.14274e-07
9.55965e-06
-4.6327e-08
9.54423e-06
-1.39674e-07
9.52612e-06
-1.16659e-07
9.51489e-06
-6.43965e-08
9.51624e-06
2.80949e-08
9.53103e-06
1.15215e-07
9.54074e-06
1.16211e-07
9.54506e-06
7.70331e-08
9.54954e-06
5.99744e-08
9.547e-06
2.85178e-08
9.5397e-06
-1.48459e-08
9.53375e-06
-3.23872e-08
9.52805e-06
-3.62593e-08
9.52053e-06
-3.8092e-08
9.5135e-06
-3.9105e-08
-3.10717e-08
9.5086e-06
1.0004e-05
-2.35326e-08
9.98833e-06
-1.14667e-07
1.00146e-05
1.36367e-07
1.00205e-05
1.08422e-07
1.00144e-05
-4.02817e-08
9.99926e-06
-1.24483e-07
9.98294e-06
-1.00346e-07
9.97226e-06
-5.37127e-08
9.97258e-06
2.77753e-08
9.9849e-06
1.02894e-07
9.99417e-06
1.06944e-07
9.99861e-06
7.25851e-08
1.00029e-05
5.56658e-08
1.00011e-05
3.03667e-08
9.99442e-06
-8.19657e-09
9.98863e-06
-2.65931e-08
9.98358e-06
-3.12131e-08
9.97709e-06
-3.16007e-08
9.97069e-06
-3.26975e-08
-2.62885e-08
9.9659e-06
1.04834e-05
-1.83047e-08
1.04681e-05
-9.93934e-08
1.04908e-05
1.13694e-07
1.04999e-05
9.93199e-08
1.0492e-05
-3.23395e-08
1.04758e-05
-1.08321e-07
1.0461e-05
-8.54999e-08
1.04513e-05
-4.40248e-08
1.0451e-05
2.80153e-08
1.04611e-05
9.28474e-08
1.04698e-05
9.82688e-08
1.04742e-05
6.81349e-08
1.04784e-05
5.14417e-08
1.04773e-05
3.15228e-08
1.04712e-05
-2.13276e-09
1.04655e-05
-2.08927e-08
1.0461e-05
-2.66543e-08
1.04553e-05
-2.59962e-08
1.04497e-05
-2.70481e-08
-2.17227e-08
1.04451e-05
1.09855e-05
-1.37439e-08
1.09713e-05
-8.52193e-08
1.09901e-05
9.49136e-08
1.10013e-05
8.81107e-08
1.09935e-05
-2.45268e-08
1.09761e-05
-9.09857e-08
1.09618e-05
-7.12172e-08
1.09531e-05
-3.53156e-08
1.09528e-05
2.83317e-08
1.0961e-05
8.46432e-08
1.09687e-05
9.0551e-08
1.0973e-05
6.38759e-08
1.0977e-05
4.74122e-08
1.09766e-05
3.19442e-08
1.09711e-05
3.33951e-09
1.09655e-05
-1.53072e-08
1.09613e-05
-2.23826e-08
1.09565e-05
-2.11797e-08
1.09515e-05
-2.20782e-08
-1.75715e-08
1.09473e-05
1.15113e-05
-9.63427e-09
1.14986e-05
-7.26029e-08
1.15136e-05
7.99156e-08
1.15256e-05
7.61367e-08
1.15195e-05
-1.84313e-08
1.15015e-05
-7.30003e-08
1.1487e-05
-5.67273e-08
1.1479e-05
-2.72326e-08
1.14789e-05
2.84205e-08
1.14857e-05
7.77905e-08
1.14923e-05
8.3963e-08
1.14961e-05
6.01088e-08
1.14997e-05
4.37393e-08
1.15001e-05
3.16384e-08
1.14954e-05
8.02535e-09
1.14899e-05
-9.79283e-09
1.14857e-05
-1.82738e-08
1.14816e-05
-1.70625e-08
1.14772e-05
-1.761e-08
-1.39981e-08
1.14736e-05
1.2062e-05
-5.79138e-09
1.20512e-05
-6.1796e-08
1.20629e-05
6.82098e-08
1.20743e-05
6.47008e-08
1.20706e-05
-1.47664e-08
1.20532e-05
-5.55553e-08
1.20379e-05
-4.14511e-08
1.203e-05
-1.92663e-08
1.20302e-05
2.81682e-08
1.20361e-05
7.18703e-08
1.20416e-05
7.8454e-08
1.20446e-05
5.71815e-08
1.20478e-05
4.04829e-08
1.20486e-05
3.08733e-08
1.20449e-05
1.16748e-08
1.20396e-05
-4.46406e-09
1.20355e-05
-1.42093e-08
1.2032e-05
-1.35371e-08
1.20281e-05
-1.36656e-08
-1.08118e-08
1.20249e-05
1.26389e-05
-2.07644e-09
1.263e-05
-5.29233e-08
1.26391e-05
5.91301e-08
1.2649e-05
5.4817e-08
1.26477e-05
-1.35053e-08
1.26322e-05
-4.00467e-08
1.26158e-05
-2.50338e-08
1.26073e-05
-1.08082e-08
1.26078e-05
2.7665e-08
1.26132e-05
6.64484e-08
1.26179e-05
7.38052e-08
1.26199e-05
5.51621e-08
1.26224e-05
3.79922e-08
1.26234e-05
2.98351e-08
1.26209e-05
1.42136e-08
1.2616e-05
4.21925e-10
1.2612e-05
-1.01569e-08
1.26088e-05
-1.03938e-08
1.26055e-05
-1.03319e-08
-7.82125e-09
1.26025e-05
1.32433e-05
1.58382e-09
1.32363e-05
-4.59751e-08
1.32435e-05
5.19537e-08
1.32513e-05
4.69934e-08
1.32517e-05
-1.38997e-08
1.3239e-05
-2.73436e-08
1.3222e-05
-8.00103e-09
1.32123e-05
-1.08228e-09
1.32127e-05
2.71744e-08
1.3218e-05
6.11652e-08
1.32222e-05
6.96505e-08
1.32235e-05
5.38937e-08
1.32249e-05
3.64985e-08
1.3226e-05
2.875e-08
1.32243e-05
1.59052e-08
1.32203e-05
4.48884e-09
1.32162e-05
-6.12947e-09
1.32133e-05
-7.46463e-09
1.32107e-05
-7.72418e-09
-4.94619e-09
1.32078e-05
1.38766e-05
5.1723e-09
1.38714e-05
-4.08348e-08
1.38775e-05
4.58943e-08
1.38829e-05
4.16167e-08
1.38838e-05
-1.48022e-08
1.38743e-05
-1.78436e-08
1.38577e-05
8.59626e-09
1.38463e-05
1.02688e-08
1.38462e-05
2.73148e-08
1.38515e-05
5.58065e-08
1.38557e-05
6.55279e-08
1.38564e-05
5.31813e-08
1.38569e-05
3.5928e-08
1.38577e-05
2.80089e-08
1.38566e-05
1.69955e-08
1.38535e-05
7.59677e-09
1.38498e-05
-2.43692e-09
1.38469e-05
-4.55388e-09
1.38449e-05
-5.74125e-09
-2.40789e-09
1.38424e-05
1.45402e-05
8.59137e-09
1.45362e-05
-3.67866e-08
1.45421e-05
4.00173e-08
1.45449e-05
3.87917e-08
1.4545e-05
-1.49412e-08
1.45387e-05
-1.15058e-08
1.45238e-05
2.35445e-08
1.45111e-05
2.28753e-08
1.45096e-05
2.88327e-08
1.45149e-05
5.05025e-08
1.45194e-05
6.10251e-08
1.452e-05
5.26052e-08
1.45198e-05
3.60914e-08
1.452e-05
2.78819e-08
1.45193e-05
1.76608e-08
1.45169e-05
1.00322e-08
1.45139e-05
5.54241e-10
1.4511e-05
-1.64797e-09
1.45093e-05
-4.07055e-09
-5.89002e-10
1.45075e-05
1.52358e-05
1.17163e-08
1.52323e-05
-3.33666e-08
1.52385e-05
3.38224e-08
1.52384e-05
3.89339e-08
1.52365e-05
-1.30251e-08
1.5233e-05
-8.00447e-09
1.52209e-05
3.55709e-08
1.52082e-05
3.56464e-08
1.5205e-05
3.19818e-08
1.52096e-05
4.59745e-08
1.52146e-05
5.59797e-08
1.52156e-05
5.16094e-08
1.5215e-05
3.67245e-08
1.52146e-05
2.82377e-08
1.52139e-05
1.83625e-08
1.5212e-05
1.19467e-08
1.52097e-05
2.8048e-09
1.52072e-05
9.19515e-10
1.52055e-05
-2.42137e-09
4.9835e-10
1.52044e-05
1.59647e-05
1.43818e-08
1.59619e-05
-3.05972e-08
1.5967e-05
2.87418e-08
1.59641e-05
4.18474e-08
1.59594e-05
-8.37048e-09
1.59579e-05
-6.49564e-09
1.59505e-05
4.29386e-08
1.59388e-05
4.73627e-08
1.59342e-05
3.6641e-08
1.59373e-05
4.28745e-08
1.59425e-05
5.07348e-08
1.59444e-05
4.97315e-08
1.59438e-05
3.7311e-08
1.59429e-05
2.91388e-08
1.59422e-05
1.90923e-08
1.59405e-05
1.36046e-08
1.59388e-05
4.53633e-09
1.59368e-05
2.85811e-09
1.59352e-05
-7.53774e-10
1.13457e-09
1.59345e-05
1.67284e-05
1.66331e-08
1.67202e-05
-2.24259e-08
1.67258e-05
2.30978e-08
1.67241e-05
4.35823e-08
1.67169e-05
-1.16662e-09
1.67161e-05
-5.72214e-09
1.6714e-05
4.50264e-08
1.67046e-05
5.67951e-08
1.66987e-05
4.25786e-08
1.67001e-05
4.1471e-08
1.67049e-05
4.58719e-08
1.67075e-05
4.71425e-08
1.67077e-05
3.71676e-08
1.67065e-05
3.02625e-08
1.67056e-05
1.99985e-08
1.67042e-05
1.49887e-08
1.67026e-05
6.14982e-09
1.67014e-05
4.10936e-09
1.66999e-05
6.70937e-10
1.65671e-09
1.66994e-05
1.75287e-05
1.8304e-08
1.75217e-05
-1.53881e-08
1.75246e-05
2.01129e-08
1.75226e-05
4.55981e-08
1.75131e-05
8.38967e-09
1.75109e-05
-3.5892e-09
1.75131e-05
4.28518e-08
1.75068e-05
6.30608e-08
1.75003e-05
4.91242e-08
1.74998e-05
4.1923e-08
1.75038e-05
4.1949e-08
1.75067e-05
4.41636e-08
1.75078e-05
3.61463e-08
1.7507e-05
3.09853e-08
1.7506e-05
2.1066e-08
1.75047e-05
1.62184e-08
1.75033e-05
7.58e-09
1.75023e-05
5.10754e-09
1.75015e-05
1.53489e-09
2.24524e-09
1.75009e-05
1.83671e-05
1.95225e-08
1.83588e-05
-7.09156e-09
1.8361e-05
1.79377e-08
1.83605e-05
4.60663e-08
1.83502e-05
1.87174e-08
1.83452e-05
1.38128e-09
1.83494e-05
3.86659e-08
1.83468e-05
6.57156e-08
1.83407e-05
5.51995e-08
1.83385e-05
4.41331e-08
1.83411e-05
3.93297e-08
1.8344e-05
4.12326e-08
1.83457e-05
3.4444e-08
1.83458e-05
3.09715e-08
1.83449e-05
2.18872e-08
1.83438e-05