/*--------------------------------*- C++ -*----------------------------------*\
| =========                 |                                                 |
| \\      /  F ield         | OpenFOAM: The Open Source CFD Toolbox           |
|  \\    /   O peration     | Version:  2506                                  |
|   \\  /    A nd           | Website:  www.openfoam.com                      |
|    \\/     M anipulation  |                                                 |
\*---------------------------------------------------------------------------*/
FoamFile
{
    version     2.0;
    format      ascii;
    arch        "LSB;label=32;scalar=64";
    class       volVectorField;
    location    "6.15";
    object      U;
}
// * * * * * * * * * * * * * * * * * * * * * * * * * * * * * * * * * * * * * //

dimensions      [0 1 -1 0 0 0 0];

internalField   nonuniform List<vector> 
9600
(
(0.95573 -0.00625049 0)
(1.0117 0.000246281 0)
(0.986469 0.00939174 0)
(0.99412 0.00404782 0)
(0.96844 0.00407895 0)
(0.99627 -0.0269775 0)
(0.990345 0.00257379 0)
(1.08035 -0.0286876 0)
(0.941779 0.0326304 0)
(1.13385 0.0127509 0)
(0.915338 0.0172039 0)
(1.08248 0.0151873 0)
(0.923975 -0.00261993 0)
(1.0161 0.00177587 0)
(0.941505 -0.0174413 0)
(1.00313 -0.020949 0)
(0.92787 -0.0218375 0)
(1.01154 -0.0373922 0)
(0.877579 -0.0138306 0)
(1.04039 -0.0460848 0)
(0.961239 -0.00605739 0)
(1.01073 7.36884e-05 0)
(0.989864 0.00944929 0)
(0.993369 0.00426635 0)
(0.970858 0.00400524 0)
(0.988047 -0.0271288 0)
(0.989623 0.00136616 0)
(1.07223 -0.0278314 0)
(0.947128 0.0318802 0)
(1.11492 0.0135055 0)
(0.940302 0.0176034 0)
(1.04283 0.0151701 0)
(0.970771 -0.00134375 0)
(0.980549 0.00131034 0)
(0.989852 -0.0168844 0)
(0.971954 -0.0208914 0)
(0.987542 -0.0216564 0)
(0.955431 -0.0367125 0)
(0.967908 -0.0134989 0)
(0.946365 -0.0468881 0)
(0.969661 -0.00588748 0)
(1.008 -0.000130061 0)
(0.996504 0.0095698 0)
(0.993124 0.00449768 0)
(0.973886 0.00398618 0)
(0.981065 -0.0272154 0)
(0.989299 0.00034527 0)
(1.06144 -0.0271865 0)
(0.959009 0.0309449 0)
(1.08742 0.0137257 0)
(0.971233 0.0184394 0)
(1.01351 0.0148486 0)
(0.992929 -0.000527403 0)
(0.982729 0.000970342 0)
(0.990311 -0.0167754 0)
(0.984171 -0.0209489 0)
(0.976446 -0.0214652 0)
(0.971318 -0.0354812 0)
(0.960656 -0.0156253 0)
(0.963226 -0.0399496 0)
(0.979045 -0.00575983 0)
(1.00413 -0.000323193 0)
(1.00362 0.00965874 0)
(0.993841 0.00474823 0)
(0.977556 0.00405729 0)
(0.975934 -0.0272907 0)
(0.988847 -0.000594616 0)
(1.0497 -0.0267565 0)
(0.973543 0.0304057 0)
(1.06396 0.0136533 0)
(0.994836 0.0193522 0)
(1.00573 0.0146788 0)
(1.0039 -0.000110426 0)
(0.992416 0.000943769 0)
(0.997946 -0.0165314 0)
(0.989304 -0.0207596 0)
(0.983601 -0.020792 0)
(0.973149 -0.0353998 0)
(0.965395 -0.0149365 0)
(0.961705 -0.0383046 0)
(0.987629 -0.00566022 0)
(1.00038 -0.000503193 0)
(1.00836 0.0097033 0)
(0.995116 0.00503591 0)
(0.982325 0.00417596 0)
(0.973541 -0.0273001 0)
(0.987844 -0.00151312 0)
(1.03794 -0.0265097 0)
(0.986222 0.0301324 0)
(1.04924 0.0135448 0)
(1.00971 0.0200065 0)
(1.00964 0.0147016 0)
(1.01181 0.000146055 0)
(1.00169 0.000888732 0)
(1.00487 -0.0161486 0)
(0.993539 -0.0205503 0)
(0.9884 -0.0204155 0)
(0.976064 -0.0344853 0)
(0.968278 -0.0150861 0)
(0.964269 -0.0360431 0)
(0.99422 -0.00558322 0)
(0.997453 -0.000657847 0)
(1.00973 0.0097179 0)
(0.996378 0.00531742 0)
(0.988541 0.00432731 0)
(0.973709 -0.027227 0)
(0.986691 -0.00235857 0)
(1.02599 -0.0264026 0)
(0.995063 0.0298088 0)
(1.04167 0.0134156 0)
(1.01849 0.0203552 0)
(1.01585 0.0148013 0)
(1.01817 0.000346197 0)
(1.0088 0.000862998 0)
(1.01014 -0.0156675 0)
(0.997673 -0.020291 0)
(0.991251 -0.0198375 0)
(0.979002 -0.0335824 0)
(0.969767 -0.0153122 0)
(0.966454 -0.0338726 0)
(0.998458 -0.00552147 0)
(0.995255 -0.000775561 0)
(1.00858 0.00970369 0)
(0.997435 0.00554279 0)
(0.995816 0.00449293 0)
(0.975826 -0.0270488 0)
(0.986136 -0.00308237 0)
(1.0135 -0.0263965 0)
(1.0001 0.0293181 0)
(1.03789 0.0132764 0)
(1.0231 0.0205045 0)
(1.02049 0.0149247 0)
(1.02275 0.000547101 0)
(1.01399 0.000863853 0)
(1.01431 -0.0151381 0)
(1.00162 -0.019907 0)
(0.993963 -0.019252 0)
(0.981833 -0.032587 0)
(0.971273 -0.0155771 0)
(0.968205 -0.0316225 0)
(1.00067 -0.00546321 0)
(0.993431 -0.000857995 0)
(1.00647 0.00966127 0)
(0.998468 0.00568354 0)
(1.00313 0.0046497 0)
(0.979153 -0.0267588 0)
(0.986637 -0.00363164 0)
(1.0006 -0.0264358 0)
(1.00202 0.0286486 0)
(1.03482 0.0131398 0)
(1.02432 0.0205352 0)
(1.02281 0.0150442 0)
(1.02553 0.00073544 0)
(1.01765 0.000856674 0)
(1.01762 -0.0145731 0)
(1.00504 -0.0194483 0)
(0.996712 -0.0186699 0)
(0.984687 -0.0314781 0)
(0.973194 -0.0157698 0)
(0.969686 -0.0294156 0)
(1.00148 -0.00539699 0)
(0.991817 -0.000914922 0)
(1.00459 0.00958904 0)
(0.999696 0.00573026 0)
(1.00944 0.00478227 0)
(0.982965 -0.0263721 0)
(0.988119 -0.00397596 0)
(0.988308 -0.0264571 0)
(1.0013 0.0277899 0)
(1.03054 0.0130143 0)
(1.02273 0.0204612 0)
(1.02321 0.0151411 0)
(1.02688 0.000871159 0)
(1.02016 0.000844984 0)
(1.0201 -0.0140032 0)
(1.0079 -0.0189497 0)
(0.999468 -0.018107 0)
(0.987844 -0.0302365 0)
(0.97569 -0.0158784 0)
(0.971411 -0.0273287 0)
(1.00154 -0.00531528 0)
(0.990502 -0.000961128 0)
(1.00338 0.009481 0)
(1.00115 0.00569776 0)
(1.01415 0.00488743 0)
(0.98664 -0.0259179 0)
(0.990167 -0.00411641 0)
(0.978152 -0.0264073 0)
(0.998463 0.026765 0)
(1.02463 0.0129098 0)
(1.01936 0.0202628 0)
(1.02264 0.0151818 0)
(1.02728 0.000942169 0)
(1.02184 0.000824075 0)
(1.02172 -0.0134605 0)
(1.00998 -0.0184123 0)
(1.00192 -0.0175591 0)
(0.991024 -0.0289146 0)
(0.978572 -0.015933 0)
(0.97354 -0.0253048 0)
(1.00133 -0.00521619 0)
(0.989633 -0.00100969 0)
(1.00274 0.00933555 0)
(1.00266 0.00561041 0)
(1.01717 0.00496719 0)
(0.989776 -0.0254233 0)
(0.992287 -0.00408523 0)
(0.971432 -0.0262567 0)
(0.994496 0.0256312 0)
(1.01815 0.0128292 0)
(1.0157 0.0199103 0)
(1.02211 0.0151472 0)
(1.0272 0.000950592 0)
(1.02281 0.000792144 0)
(1.02246 -0.0129396 0)
(1.01113 -0.0178341 0)
(1.00373 -0.0170445 0)
(0.99382 -0.0275836 0)
(0.981471 -0.0159068 0)
(0.975953 -0.0233176 0)
(1.00117 -0.005103 0)
(0.989261 -0.00106076 0)
(1.00233 0.00915931 0)
(1.00402 0.0054827 0)
(1.0187 0.00502904 0)
(0.992268 -0.0249081 0)
(0.994069 -0.00393412 0)
(0.96857 -0.0259956 0)
(0.990735 0.0244422 0)
(1.0128 0.0127618 0)
(1.01305 0.0193818 0)
(1.02205 0.0150608 0)
(1.0269 0.000916454 0)
(1.02294 0.000768252 0)
(1.02231 -0.0124145 0)
(1.01136 -0.0172366 0)
(1.00467 -0.0165812 0)
(0.995862 -0.026268 0)
(0.983966 -0.0157716 0)
(0.978325 -0.0214161 0)
(1.00122 -0.00498069 0)
(0.989316 -0.00111347 0)
(1.00184 0.0089616 0)
(1.00497 0.00533085 0)
(1.01909 0.00507826 0)
(0.994249 -0.0243795 0)
(0.995273 -0.00372931 0)
(0.968976 -0.0256323 0)
(0.988137 0.0232278 0)
(1.00961 0.0126968 0)
(1.01185 0.0186958 0)
(1.02209 0.0149601 0)
(1.02636 0.000873448 0)
(1.02211 0.00077428 0)
(1.02131 -0.0118872 0)
(1.01085 -0.0166261 0)
(1.00475 -0.0161568 0)
(0.997028 -0.0249988 0)
(0.98582 -0.0155522 0)
(0.980353 -0.0196375 0)
(1.00151 -0.00485512 0)
(0.989666 -0.00116566 0)
(1.00111 0.00875137 0)
(1.0054 0.00516615 0)
(1.01865 0.00511108 0)
(0.995937 -0.0238353 0)
(0.995868 -0.0035292 0)
(0.971431 -0.0251829 0)
(0.986734 0.0219994 0)
(1.00829 0.0126225 0)
(1.01159 0.0179117 0)
(1.02141 0.0148729 0)
(1.02535 0.000849739 0)
(1.0204 0.000816517 0)
(1.01963 -0.0113709 0)
(1.00994 -0.0160199 0)
(1.00422 -0.015736 0)
(0.997448 -0.0238226 0)
(0.987059 -0.0152787 0)
(0.981899 -0.0179859 0)
(1.00193 -0.00473159 0)
(0.990165 -0.00120764 0)
(1.00016 0.00853752 0)
(1.00531 0.00499088 0)
(1.01767 0.0051213 0)
(0.997479 -0.0232717 0)
(0.995992 -0.00335854 0)
(0.974687 -0.0246554 0)
(0.985825 0.0207707 0)
(1.00753 0.0125336 0)
(1.0113 0.0170908 0)
(1.01951 0.0148162 0)
(1.02373 0.000849931 0)
(1.01817 0.000876426 0)
(1.01758 -0.0108626 0)
(1.00894 -0.0154587 0)
(1.00345 -0.0152831 0)
(0.9974 -0.0227439 0)
(0.987876 -0.0149749 0)
(0.982999 -0.016488 0)
(1.00238 -0.00461204 0)
(0.990695 -0.00123589 0)
(0.999105 0.00832831 0)
(1.00487 0.00480683 0)
(1.01643 0.00510435 0)
(0.998888 -0.0226885 0)
(0.995846 -0.00322486 0)
(0.977875 -0.0240513 0)
(0.984685 0.0195615 0)
(1.00618 0.0124428 0)
(1.01029 0.0162709 0)
(1.01654 0.0147905 0)
(1.02161 0.000855901 0)
(1.01589 0.000926271 0)
(1.01551 -0.0103748 0)
(1.00805 -0.0149516 0)
(1.00274 -0.0147802 0)
(0.997162 -0.0217505 0)
(0.988477 -0.0146571 0)
(0.983791 -0.0151531 0)
(1.00273 -0.00449643 0)
(0.991181 -0.00125099 0)
(0.998127 0.00812984 0)
(1.0043 0.00461514 0)
(1.01516 0.00505624 0)
(1.00009 -0.022089 0)
(0.995607 -0.00312779 0)
(0.980582 -0.0233644 0)
(0.983114 0.0183902 0)
(1.00391 0.0123657 0)
(1.00852 0.0154527 0)
(1.01312 0.0147819 0)
(1.0193 0.000834777 0)
(1.0139 0.000957934 0)
(1.01369 -0.00990303 0)
(1.00733 -0.0145059 0)
(1.00221 -0.0142279 0)
(0.996922 -0.0208168 0)
(0.989003 -0.0143473 0)
(0.984409 -0.0139293 0)
(1.00296 -0.00438331 0)
(0.991602 -0.00125501 0)
(0.997347 0.00794348 0)
(1.00376 0.00441643 0)
(1.01402 0.00497832 0)
(1.00099 -0.021478 0)
(0.995383 -0.00306156 0)
(0.982711 -0.0225899 0)
(0.981424 0.0172704 0)
(1.00116 0.0123094 0)
(1.00643 0.0146164 0)
(1.00993 0.0147673 0)
(1.01715 0.000774522 0)
(1.01232 0.000948217 0)
(1.01222 -0.00940863 0)
(1.00676 -0.0141488 0)
(1.00183 -0.0136256 0)
(0.996751 -0.0198986 0)
(0.989521 -0.0140782 0)
(0.984937 -0.0127853 0)
(1.00304 -0.00427025 0)
(0.991966 -0.00125206 0)
(0.996805 0.00776799 0)
(1.00335 0.00421096 0)
(1.01304 0.00487591 0)
(1.00159 -0.0208547 0)
(0.995215 -0.00302667 0)
(0.984318 -0.0217304 0)
(0.980058 0.0162016 0)
(0.998583 0.012276 0)
(1.00451 0.0137492 0)
(1.00735 0.0147252 0)
(1.01536 0.000690504 0)
(1.01112 0.000879877 0)
(1.01106 -0.00886993 0)
(1.00631 -0.0138785 0)
(1.00156 -0.0129888 0)
(0.996641 -0.0189635 0)
(0.990051 -0.0138668 0)
(0.985418 -0.0117241 0)
(1.00302 -0.00415504 0)
(0.992292 -0.00124789 0)
(0.996478 0.00760267 0)
(1.00305 0.00399838 0)
(1.0122 0.00475533 0)
(1.00192 -0.0202186 0)
(0.995098 -0.00301794 0)
(0.985516 -0.0207964 0)
(0.979269 0.0151684 0)
(0.996571 0.012265 0)
(1.00305 0.0128521 0)
(1.00544 0.0146418 0)
(1.01397 0.000605123 0)
(1.01022 0.000748662 0)
(1.01013 -0.00828191 0)
(1.00595 -0.0136542 0)
(1.00134 -0.0123626 0)
(0.996556 -0.0179739 0)
(0.990595 -0.013717 0)
(0.985874 -0.010766 0)
(1.00293 -0.0040362 0)
(0.992592 -0.00124732 0)
(0.996315 0.00744691 0)
(1.00286 0.00378021 0)
(1.01147 0.00462219 0)
(1.00205 -0.0195683 0)
(0.99501 -0.00302851 0)
(0.986422 -0.0197984 0)
(0.979064 0.0141516 0)
(0.995209 0.0122743 0)
(1.0021 0.0119344 0)
(1.0041 0.0145097 0)
(1.01289 0.000543702 0)
(1.00953 0.000521331 0)
(1.00933 -0.00763714 0)
(1.00565 -0.0134385 0)
(1.00116 -0.011784 0)
(0.996468 -0.0169058 0)
(0.991142 -0.0136007 0)
(0.986327 -0.0099409 0)
(1.0028 -0.00391243 0)
(0.992868 -0.00125381 0)
(0.996268 0.00729946 0)
(1.00273 0.003558 0)
(1.01081 0.00447884 0)
(1.00206 -0.0188978 0)
(0.994934 -0.00306604 0)
(0.987136 -0.0187441 0)
(0.979314 0.0131391 0)
(0.99439 0.012293 0)
(1.00156 0.0110145 0)
(1.00317 0.0143155 0)
(1.01203 0.000524694 0)
(1.00899 0.000212582 0)
(1.00861 -0.00695283 0)
(1.00538 -0.0132005 0)
(1.001 -0.0112709 0)
(0.996364 -0.0157656 0)
(0.991673 -0.0134765 0)
(0.986804 -0.00926785 0)
(1.00266 -0.00378306 0)
(0.993116 -0.00126906 0)
(0.996299 0.00716016 0)
(1.00265 0.00333193 0)
(1.01021 0.00432955 0)
(1.00201 -0.0182084 0)
(0.994867 -0.00312973 0)
(0.987729 -0.0176465 0)
(0.979865 0.0121181 0)
(0.993953 0.0123129 0)
(1.0013 0.0101098 0)
(1.00251 0.0140501 0)
(1.0113 0.000564158 0)
(1.00856 -0.000162418 0)
(1.00791 -0.00625342 0)
(1.00513 -0.0129098 0)
(1.00088 -0.0108496 0)
(0.996247 -0.0145696 0)
(0.99217 -0.0132897 0)
(0.987329 -0.00877409 0)
(1.00254 -0.00364745 0)
(0.993335 -0.00129462 0)
(0.996376 0.0070268 0)
(1.00258 0.0031078 0)
(1.00966 0.00417513 0)
(1.00193 -0.0174979 0)
(0.994814 -0.00321207 0)
(0.988248 -0.0165204 0)
(0.980595 0.0110892 0)
(0.993754 0.012327 0)
(1.00121 0.00922761 0)
(1.00202 0.0137021 0)
(1.01062 0.00069377 0)
(1.0082 -0.000601745 0)
(1.00724 -0.005565 0)
(1.00489 -0.0125272 0)
(1.00079 -0.0105406 0)
(0.996132 -0.0133568 0)
(0.99261 -0.0129867 0)
(0.987915 -0.00846914 0)
(1.00244 -0.00350561 0)
(0.993525 -0.00133046 0)
(0.996472 0.00689749 0)
(1.00252 0.0028828 0)
(1.00914 0.00400985 0)
(1.00184 -0.0167625 0)
(0.994785 -0.0033171 0)
(0.988723 -0.015371 0)
(0.981425 0.0100583 0)
(0.993683 0.0123248 0)
(1.00121 0.00839769 0)
(1.00166 0.0132693 0)
(1.00996 0.000916982 0)
(1.0079 -0.00106935 0)
(1.00659 -0.00491707 0)
(1.00465 -0.012024 0)
(1.00075 -0.0103365 0)
(0.996039 -0.0121769 0)
(0.992979 -0.012549 0)
(0.988563 -0.00832448 0)
(1.00238 -0.00335712 0)
(0.993689 -0.00137763 0)
(0.996565 0.00677382 0)
(1.00245 0.00265768 0)
(1.00865 0.00383543 0)
(1.00176 -0.0160021 0)
(0.99479 -0.00344365 0)
(0.98917 -0.0142105 0)
(0.982305 0.00902669 0)
(0.993667 0.012298 0)
(1.00124 0.00764379 0)
(1.00136 0.0127382 0)
(1.00929 0.0012023 0)
(1.00765 -0.00153428 0)
(1.00596 -0.0043349 0)
(1.00441 -0.0114029 0)
(1.00075 -0.0102016 0)
(0.995989 -0.0110834 0)
(0.993271 -0.0119603 0)
(0.989262 -0.00828374 0)
(1.00234 -0.00320212 0)
(0.993839 -0.00143491 0)
(0.996639 0.00665445 0)
(1.00238 0.00243838 0)
(1.00819 0.00364982 0)
(1.00168 -0.0152133 0)
(0.994832 -0.00358826 0)
(0.989596 -0.0130484 0)
(0.983211 0.00800745 0)
(0.993666 0.0122305 0)
(1.00128 0.00696453 0)
(1.00112 0.012099 0)
(1.0086 0.00154445 0)
(1.00743 -0.00196933 0)
(1.00539 -0.00384787 0)
(1.00414 -0.0106677 0)
(1.0008 -0.0100954 0)
(0.996 -0.0101266 0)
(0.993493 -0.0112238 0)
(0.989991 -0.00827476 0)
(1.00232 -0.00304202 0)
(0.993986 -0.00149762 0)
(0.996687 0.00653426 0)
(1.0023 0.00222572 0)
(1.00775 0.00344891 0)
(1.00158 -0.0143995 0)
(0.994913 -0.00374567 0)
(0.990006 -0.0118916 0)
(0.984133 0.00701733 0)
(0.993664 0.0121001 0)
(1.0013 0.0063797 0)
(1.00093 0.0113756 0)
(1.0079 0.00193029 0)
(1.00724 -0.00234695 0)
(1.00488 -0.00347231 0)
(1.00386 -0.0098347 0)
(1.00088 -0.00998217 0)
(0.996083 -0.00932514 0)
(0.993663 -0.0103631 0)
(0.990718 -0.00823195 0)
(1.00231 -0.00287617 0)
(0.994142 -0.00156694 0)
(0.99671 0.00641287 0)
(1.00221 0.00202427 0)
(1.00732 0.00322805 0)
(1.00147 -0.0135605 0)
(0.995026 -0.00390943 0)
(0.990402 -0.0107553 0)
(0.985064 0.00607797 0)
(0.993664 0.0118905 0)
(1.0013 0.00590506 0)
(1.00078 0.0105839 0)
(1.00719 0.00232738 0)
(1.00705 -0.00264258 0)
(1.00445 -0.00320738 0)
(1.00356 -0.00894037 0)
(1.00099 -0.00980608 0)
(0.996245 -0.00868103 0)
(0.9938 -0.00944151 0)
(0.991403 -0.00809999 0)
(1.00229 -0.00270586 0)
(0.994316 -0.00163843 0)
(0.996719 0.00628623 0)
(1.00212 0.00183696 0)
(1.00691 0.00298589 0)
(1.00133 -0.0126932 0)
(0.995165 -0.00407833 0)
(0.990789 -0.0096516 0)
(0.985998 0.00519648 0)
(0.993676 0.0116054 0)
(1.00128 0.00552518 0)
(1.00066 0.00973484 0)
(1.00649 0.00270878 0)
(1.00684 -0.0028372 0)
(1.0041 -0.00304467 0)
(1.00323 -0.00802372 0)
(1.0011 -0.00952865 0)
(0.996478 -0.00819037 0)
(0.993929 -0.00854093 0)
(0.992021 -0.00783395 0)
(1.00226 -0.00253236 0)
(0.994512 -0.00171232 0)
(0.996726 0.00615301 0)
(1.00203 0.00166478 0)
(1.0065 0.00272745 0)
(1.00117 -0.0118115 0)
(0.995324 -0.0042378 0)
(0.991172 -0.00858796 0)
(0.986929 0.00438385 0)
(0.993712 0.0112287 0)
(1.00123 0.00524295 0)
(1.00059 0.00885312 0)
(1.00579 0.00305494 0)
(1.0066 -0.00290924 0)
(1.00383 -0.00297396 0)
(1.00289 -0.00712275 0)
(1.00119 -0.00914428 0)
(0.996768 -0.0078235 0)
(0.994075 -0.0077153 0)
(0.992553 -0.00742207 0)
(1.00221 -0.00235616 0)
(0.99473 -0.00178572 0)
(0.996744 0.00601033 0)
(1.00194 0.00151164 0)
(1.00611 0.00244968 0)
(1.001 -0.0109207 0)
(0.995498 -0.0043871 0)
(0.991553 -0.00758656 0)
(0.987847 0.00366073 0)
(0.993779 0.010757 0)
(1.00115 0.00504563 0)
(1.00054 0.00797081 0)
(1.00512 0.00334138 0)
(1.00631 -0.00285196 0)
(1.00361 -0.00297392 0)
(1.00254 -0.00627636 0)
(1.00124 -0.00864315 0)
(0.997097 -0.00753491 0)
(0.994261 -0.00699803 0)
(0.992997 -0.00689009 0)
(1.00215 -0.00217817 0)
(0.994966 -0.00185701 0)
(0.99678 0.00585183 0)
(1.00185 0.00138226 0)
(1.00573 0.00215628 0)
(1.0008 -0.0100257 0)
(0.995683 -0.00451942 0)
(0.991939 -0.00666262 0)
(0.988745 0.00303361 0)
(0.99388 0.0102067 0)
(1.00104 0.0049036 0)
(1.00051 0.00711366 0)
(1.00447 0.00353147 0)
(1.00597 -0.00268054 0)
(1.00345 -0.00300888 0)
(1.00221 -0.00551325 0)
(1.00124 -0.00804312 0)
(0.997445 -0.00727276 0)
(0.9945 -0.00640219 0)
(0.993363 -0.00628003 0)
(1.00207 -0.00200003 0)
(0.995216 -0.00192454 0)
(0.996839 0.00567506 0)
(1.00176 0.00128141 0)
(1.00536 0.00185482 0)
(1.00061 -0.00914076 0)
(0.995878 -0.00461262 0)
(0.992331 -0.00581272 0)
(0.989616 0.00250589 0)
(0.994016 0.00959005 0)
(1.00091 0.00481176 0)
(1.00049 0.00631168 0)
(1.00386 0.00363444 0)
(1.00558 -0.00241677 0)
(1.00333 -0.00304625 0)
(1.00191 -0.004854 0)
(1.0012 -0.00738031 0)
(0.99779 -0.0069829 0)
(0.9948 -0.00592912 0)
(0.993678 -0.00565178 0)
(1.00199 -0.00182232 0)
(0.995473 -0.00198537 0)
(0.996919 0.00548039 0)
(1.00166 0.00121233 0)
(1.00501 0.00154256 0)
(1.00041 -0.00827543 0)
(0.996082 -0.00466111 0)
(0.99273 -0.00505776 0)
(0.990455 0.00207789 0)
(0.994187 0.00892699 0)
(1.00075 0.00474603 0)
(1.00048 0.00558243 0)
(1.00329 0.00365921 0)
(1.00514 -0.00208419 0)
(1.00323 -0.00305778 0)
(1.00165 -0.00430146 0)
(1.00111 -0.00668467 0)
(0.998114 -0.00664574 0)
(0.995154 -0.00555523 0)
(0.993973 -0.0050764 0)
(1.0019 -0.00164651 0)
(0.995736 -0.0020384 0)
(0.997018 0.00526855 0)
(1.00155 0.00116906 0)
(1.00469 0.00122328 0)
(1.00022 -0.00743993 0)
(0.996289 -0.0046634 0)
(0.993135 -0.0043987 0)
(0.991261 0.00173643 0)
(0.994389 0.0082298 0)
(1.00059 0.00466839 0)
(1.00046 0.00492098 0)
(1.00278 0.00359979 0)
(1.00467 -0.00170338 0)
(1.00314 -0.00302347 0)
(1.00144 -0.00383976 0)
(1.001 -0.0059947 0)
(0.998404 -0.00624657 0)
(0.995546 -0.00524585 0)
(0.994277 -0.00459826 0)
(1.00181 -0.00147463 0)
(0.996 -0.0020794 0)
(0.997133 0.00503547 0)
(1.00144 0.00115438 0)
(1.00438 0.000906433 0)
(1.00003 -0.00664569 0)
(0.996499 -0.00460392 0)
(0.993546 -0.00382948 0)
(0.992028 0.00147595 0)
(0.994618 0.00751264 0)
(1.00042 0.00457611 0)
(1.00045 0.0043418 0)
(1.00233 0.00347333 0)
(1.00419 -0.00130456 0)
(1.00304 -0.00292815 0)
(1.00128 -0.00346243 0)
(1.00087 -0.0053351 0)
(0.998653 -0.00579231 0)
(0.995955 -0.00494915 0)
(0.994616 -0.00421292 0)
(1.00171 -0.00130692 0)
(0.996264 -0.00210734 0)
(0.997262 0.00478349 0)
(1.00132 0.00116187 0)
(1.0041 0.000606663 0)
(0.999856 -0.00590068 0)
(0.996707 -0.00447653 0)
(0.993961 -0.00335563 0)
(0.992758 0.00127428 0)
(0.994872 0.00680338 0)
(1.00026 0.00446507 0)
(1.00044 0.00384982 0)
(1.00193 0.00329068 0)
(1.0037 -0.000915985 0)
(1.00294 -0.0027685 0)
(1.00117 -0.00314735 0)
(1.00075 -0.00471571 0)
(0.998864 -0.00532607 0)
(0.996363 -0.00462604 0)
(0.994987 -0.00389654 0)
(1.00162 -0.0011461 0)
(0.996527 -0.00211801 0)
(0.997404 0.00451133 0)
(1.00119 0.00118983 0)
(1.00384 0.00031877 0)
(0.999696 -0.00520894 0)
(0.996911 -0.004295 0)
(0.994374 -0.00296571 0)
(0.99345 0.0011209 0)
(0.995147 0.00612672 0)
(1.0001 0.00433582 0)
(1.00042 0.00343237 0)
(1.0016 0.0030686 0)
(1.00323 -0.000554393 0)
(1.00282 -0.00255457 0)
(1.0011 -0.00286157 0)
(1.00065 -0.00414011 0)
(0.999047 -0.00485246 0)
(0.996761 -0.00427997 0)
(0.99538 -0.0036118 0)
(1.00153 -0.000993784 0)
(0.996786 -0.00210912 0)
(0.997559 0.00421709 0)
(1.00106 0.0012349 0)
(1.0036 4.74264e-05 0)
(0.999552 -0.00458424 0)
(0.997107 -0.00405449 0)
(0.994787 -0.00263658 0)
(0.994106 0.000999453 0)
(0.995441 0.00548941 0)
(0.999967 0.00418118 0)
(1.0004 0.00308173 0)
(1.00133 0.00282611 0)
(1.00279 -0.00023246 0)
(1.00269 -0.00230513 0)
(1.00108 -0.00260084 0)
(1.00056 -0.0036061 0)
(0.999204 -0.00437654 0)
(0.997143 -0.00393974 0)
(0.995776 -0.00331563 0)
(1.00144 -0.000850457 0)
(0.99704 -0.00207937 0)
(0.997725 0.00390215 0)
(1.00092 0.00129091 0)
(1.00337 -0.000189224 0)
(0.999429 -0.00403025 0)
(0.997297 -0.00376318 0)
(0.995193 -0.00235608 0)
(0.994728 0.000896525 0)
(0.99575 0.00488988 0)
(0.999847 0.00399985 0)
(1.00038 0.00280049 0)
(1.00112 0.00258467 0)
(1.00238 3.76111e-05 0)
(1.00254 -0.00202258 0)
(1.00108 -0.00236734 0)
(1.0005 -0.00312082 0)
(0.999337 -0.00389154 0)
(0.997512 -0.00361017 0)
(0.996172 -0.00300414 0)
(1.00136 -0.000719152 0)
(0.997287 -0.00202233 0)
(0.997904 0.00355996 0)
(1.00078 0.00135856 0)
(1.00316 -0.000390893 0)
(0.999328 -0.00354811 0)
(0.997478 -0.0034366 0)
(0.995592 -0.00211122 0)
(0.995316 0.000802899 0)
(0.996072 0.0043368 0)
(0.999754 0.00379202 0)
(1.00035 0.00257757 0)
(1.00095 0.00235581 0)
(1.00201 0.000259764 0)
(1.00239 -0.00172484 0)
(1.00111 -0.00214365 0)
(1.00047 -0.00268965 0)
(0.99945 -0.00339581 0)
(0.997863 -0.00328605 0)
(0.996556 -0.00270091 0)
(1.00127 -0.000600829 0)
(0.997523 -0.00193398 0)
(0.998093 0.00319456 0)
(1.00064 0.00142547 0)
(1.00297 -0.000546795 0)
(0.999251 -0.00314246 0)
(0.997652 -0.00309063 0)
(0.995978 -0.00189215 0)
(0.995872 0.000716152 0)
(0.996401 0.00382606 0)
(0.999686 0.00355654 0)
(1.00032 0.00240569 0)
(1.00082 0.00215454 0)
(1.00169 0.0004502 0)
(1.00223 -0.00143582 0)
(1.00115 -0.00192153 0)
(1.00048 -0.00231547 0)
(0.999549 -0.00291558 0)
(0.998189 -0.00296191 0)
(0.996938 -0.00242153 0)
(1.0012 -0.000496331 0)
(0.997745 -0.00181666 0)
(0.99829 0.00282072 0)
(1.00051 0.00148265 0)
(1.00277 -0.000647618 0)
(0.999196 -0.00280763 0)
(0.99782 -0.00273965 0)
(0.99635 -0.00168293 0)
(0.996398 0.000653979 0)
(0.996736 0.00336431 0)
(0.999651 0.00330899 0)
(1.0003 0.00226244 0)
(1.00073 0.00198765 0)
(1.00141 0.000605696 0)
(1.00207 -0.0011555 0)
(1.00121 -0.00170491 0)
(1.00052 -0.00200151 0)
(0.999644 -0.00246748 0)
(0.998486 -0.00261766 0)
(0.997317 -0.00216768 0)
(1.00112 -0.00040622 0)
(0.997951 -0.00167046 0)
(0.998493 0.00244534 0)
(1.00038 0.00151643 0)
(1.00259 -0.000686567 0)
(0.999162 -0.0025264 0)
(0.997985 -0.00239772 0)
(0.996705 -0.00146758 0)
(0.996892 0.000599529 0)
(0.997071 0.00295968 0)
(0.999644 0.00305487 0)
(1.00029 0.00212572 0)
(1.00067 0.00185191 0)
(1.00117 0.000730812 0)
(1.00191 -0.000879952 0)
(1.00127 -0.00149774 0)
(1.0006 -0.00173771 0)
(0.999751 -0.00206851 0)
(0.998753 -0.00226886 0)
(0.997684 -0.00193 0)
(1.00105 -0.000329623 0)
(0.998139 -0.00150446 0)
(0.998695 0.00208521 0)
(1.00026 0.00150699 0)
(1.0024 -0.000664571 0)
(0.999145 -0.00227868 0)
(0.998148 -0.00208749 0)
(0.997041 -0.00126082 0)
(0.997354 0.000563492 0)
(0.997404 0.00261285 0)
(0.999666 0.00282009 0)
(1.00029 0.00201568 0)
(1.00063 0.00172959 0)
(1.00098 0.000831548 0)
(1.00176 -0.000613876 0)
(1.00132 -0.00128993 0)
(1.00072 -0.00151312 0)
(0.999877 -0.00172594 0)
(0.998998 -0.00192903 0)
(0.998038 -0.00168992 0)
(1.00098 -0.000264567 0)
(0.998309 -0.00133206 0)
(0.998892 0.00175559 0)
(1.00016 0.00145037 0)
(1.00222 -0.00059654 0)
(0.999139 -0.00204181 0)
(0.998311 -0.00181132 0)
(0.997361 -0.00106452 0)
(0.997786 0.00055166 0)
(0.997732 0.00232706 0)
(0.999711 0.00259669 0)
(1.0003 0.00190481 0)
(1.00063 0.00160365 0)
(1.00083 0.000903403 0)
(1.00161 -0.000365847 0)
(1.00137 -0.00107352 0)
(1.00086 -0.00132039 0)
(1.00003 -0.00144048 0)
(0.999233 -0.00160871 0)
(0.998366 -0.00143423 0)
(1.00092 -0.000209463 0)
(0.99846 -0.0011599 0)
(0.999079 0.00146518 0)
(1.00007 0.00134848 0)
(1.00205 -0.000493422 0)
(0.999141 -0.00179214 0)
(0.99847 -0.00155974 0)
(0.997667 -0.000884691 0)
(0.998189 0.000558974 0)
(0.99805 0.00209271 0)
(0.999772 0.00238804 0)
(1.00033 0.0017866 0)
(1.00064 0.00148811 0)
(1.00073 0.000953561 0)
(1.00147 -0.000143745 0)
(1.0014 -0.000857892 0)
(1.001 -0.00114323 0)
(1.00021 -0.00120742 0)
(0.999475 -0.00133557 0)
(0.998675 -0.00118127 0)
(1.00086 -0.00016156 0)
(0.998594 -0.000997566 0)
(0.999253 0.0012235 0)
(0.999995 0.00121014 0)
(1.00189 -0.000380397 0)
(0.999146 -0.00152115 0)
(0.998623 -0.00131489 0)
(0.997959 -0.000721 0)
(0.998568 0.000564954 0)
(0.998354 0.00190257 0)
(0.999844 0.00219933 0)
(1.00036 0.00167003 0)
(1.00067 0.00137317 0)
(1.00067 0.000971491 0)
(1.00136 4.57305e-05 0)
(1.00142 -0.00064357 0)
(1.00115 -0.000968881 0)
(1.00042 -0.0010038 0)
(0.99973 -0.00110783 0)
(0.998979 -0.00094943 0)
(1.0008 -0.000118568 0)
(0.998712 -0.000852224 0)
(0.999411 0.00102975 0)
(0.999937 0.00105359 0)
(1.00175 -0.000285632 0)
(0.999156 -0.00123971 0)
(0.998764 -0.00107251 0)
(0.998232 -0.000570893 0)
(0.998921 0.000562609 0)
(0.998647 0.00174972 0)
(0.999921 0.00203109 0)
(1.00039 0.00156963 0)
(1.00072 0.00125448 0)
(1.00065 0.00096745 0)
(1.00127 0.000207778 0)
(1.00144 -0.000431621 0)
(1.0013 -0.000798612 0)
(1.00063 -0.000819279 0)
(0.999996 -0.000909707 0)
(0.999289 -0.000754932 0)
(1.00075 -7.89959e-05 0)
(0.998818 -0.000724437 0)
(0.999552 0.000875943 0)
(0.99989 0.000899482 0)
(1.00163 -0.000225755 0)
(0.999172 -0.000961655 0)
(0.998892 -0.000819326 0)
(0.998485 -0.000431729 0)
(0.999254 0.000558567 0)
(0.998928 0.00161491 0)
(1 0.00189994 0)
(1.00042 0.00148991 0)
(1.00078 0.00115668 0)
(1.00067 0.000950201 0)
(1.00121 0.000339902 0)
(1.00145 -0.000232267 0)
(1.00143 -0.000635181 0)
(1.00085 -0.000651143 0)
(1.00026 -0.000726501 0)
(0.99961 -0.000607253 0)
(1.0007 -4.11423e-05 0)
(0.998913 -0.000618015 0)
(0.999678 0.000757186 0)
(0.99985 0.000761484 0)
(1.00154 -0.000203597 0)
(0.999202 -0.00070756 0)
(0.999004 -0.000546071 0)
(0.998712 -0.000283988 0)
(0.999563 0.00054644 0)
(0.999203 0.00148825 0)
(1.00009 0.00178757 0)
(1.00045 0.00142551 0)
(1.00085 0.00108062 0)
(1.00071 0.000914006 0)
(1.00119 0.000439884 0)
(1.00146 -4.65471e-05 0)
(1.00156 -0.000466413 0)
(1.00107 -0.000499055 0)
(1.00052 -0.000552519 0)
(0.999923 -0.000472482 0)
(1.00065 -2.97615e-06 0)
(0.998998 -0.000533771 0)
(0.999789 0.000664241 0)
(0.999813 0.00064614 0)
(1.00147 -0.000201252 0)
(0.999252 -0.000495096 0)
(0.999107 -0.000262595 0)
(0.998909 -0.000117467 0)
(0.999847 0.000530643 0)
(0.999472 0.00137557 0)
(1.00019 0.00168408 0)
(1.00048 0.00139341 0)
(1.00091 0.00102409 0)
(1.00079 0.000874426 0)
(1.00119 0.000501996 0)
(1.00147 0.000110073 0)
(1.00167 -0.000302086 0)
(1.00129 -0.000372143 0)
(1.00078 -0.000403415 0)
(1.00022 -0.000324781 0)
(1.0006 3.41492e-05 0)
(0.999077 -0.000470539 0)
(0.999891 0.000587818 0)
(0.999778 0.000562959 0)
(1.00142 -0.000216977 0)
(0.999328 -0.000330395 0)
(0.999206 1.70813e-05 0)
(0.999071 7.73834e-05 0)
(1.0001 0.000523768 0)
(0.999736 0.00125583 0)
(1.0003 0.0015888 0)
(1.00052 0.00137581 0)
(1.00096 0.0010041 0)
(1.00087 0.000845901 0)
(1.00123 0.000536131 0)
(1.00151 0.000231479 0)
(1.00176 -0.000150273 0)
(1.0015 -0.00025346 0)
(1.00105 -0.000293171 0)
(1.00049 -0.000177047 0)
(1.00057 7.04626e-05 0)
(0.99915 -0.000422124 0)
(0.999987 0.00051794 0)
(0.999743 0.000512358 0)
(1.00138 -0.000227899 0)
(0.999435 -0.000218621 0)
(0.999314 0.000282988 0)
(0.9992 0.000306206 0)
(1.00032 0.00054302 0)
(0.999993 0.00112934 0)
(1.00043 0.00148831 0)
(1.00056 0.00135878 0)
(1.001 0.00100364 0)
(1.00095 0.000834843 0)
(1.00129 0.000565041 0)
(1.00156 0.000320469 0)
(1.00185 -1.98264e-05 0)
(1.00169 -0.00012957 0)
(1.00132 -0.000216606 0)
(1.00075 -5.48579e-05 0)
(1.00053 0.000101347 0)
(0.999217 -0.000382194 0)
(1.00008 0.000447288 0)
(0.999713 0.000495968 0)
(1.00135 -0.000219318 0)
(0.999572 -0.00015183 0)
(0.999441 0.000517515 0)
(0.9993 0.000546343 0)
(1.00049 0.000594984 0)
(1.00024 0.00102065 0)
(1.00058 0.00136822 0)
(1.00062 0.0013398 0)
(1.00105 0.001015 0)
(1.00104 0.000846246 0)
(1.00137 0.000589076 0)
(1.00163 0.000388209 0)
(1.00195 7.18438e-05 0)
(1.00186 -1.28093e-05 0)
(1.00159 -0.000153899 0)
(1.00103 1.61447e-05 0)
(1.0005 0.000136187 0)
(0.999281 -0.000359463 0)
(1.00018 0.00036812 0)
(0.999689 0.000524118 0)
(1.00133 -0.000171668 0)
(0.999738 -0.000116207 0)
(0.999597 0.000682746 0)
(0.99938 0.000780576 0)
(1.00061 0.000680075 0)
(1.00046 0.000942067 0)
(1.00076 0.00123534 0)
(1.0007 0.00130013 0)
(1.0011 0.00103734 0)
(1.00112 0.000871785 0)
(1.00144 0.000615147 0)
(1.0017 0.000453131 0)
(1.00206 0.000142909 0)
(1.00201 8.57105e-05 0)
(1.00184 -8.03694e-05 0)
(1.00133 4.74155e-05 0)
(1.00047 0.000158607 0)
(0.999337 -0.000295189 0)
(1.00029 0.000298561 0)
(0.999684 0.000559033 0)
(1.0013 -8.05693e-05 0)
(0.999915 -0.000105722 0)
(0.999787 0.00074854 0)
(0.999458 0.000978557 0)
(1.00069 0.000791161 0)
(1.00065 0.000894631 0)
(1.00094 0.0011185 0)
(1.00082 0.00123142 0)
(1.00116 0.00104497 0)
(1.0012 0.000903938 0)
(1.00153 0.000647199 0)
(1.00178 0.000513356 0)
(1.00217 0.000206661 0)
(1.00217 0.000151783 0)
(1.00205 -3.55299e-06 0)
(1.00162 6.83357e-05 0)
(1.00045 0.000174769 0)
(0.999386 -0.000203912 0)
(1.00039 0.000252573 0)
(0.999691 0.000581612 0)
(1.00127 4.8525e-05 0)
(1.00009 -8.9148e-05 0)
(1.00001 0.000729511 0)
(0.999553 0.00111585 0)
(1.00075 0.000923128 0)
(1.0008 0.000887524 0)
(1.00111 0.00101723 0)
(1.00096 0.00115353 0)
(1.00126 0.00101969 0)
(1.00128 0.000936286 0)
(1.00161 0.000682619 0)
(1.00186 0.000565519 0)
(1.00227 0.000267805 0)
(1.00233 0.00019382 0)
(1.00226 5.47193e-05 0)
(1.00189 9.46361e-05 0)
(1.00043 0.000193827 0)
(0.999427 -0.000125105 0)
(1.0005 0.000218291 0)
(0.999718 0.000597124 0)
(1.00122 0.000198301 0)
(1.00023 -3.10264e-05 0)
(1.00025 0.000665161 0)
(0.999679 0.00118554 0)
(1.00078 0.00105204 0)
(1.0009 0.000926068 0)
(1.00127 0.000936388 0)
(1.00111 0.00107976 0)
(1.00137 0.000976475 0)
(1.00138 0.000945965 0)
(1.0017 0.000718349 0)
(1.00194 0.000610963 0)
(1.00236 0.000326698 0)
(1.00248 0.000233488 0)
(1.00245 8.44079e-05 0)
(1.00213 0.000121715 0)
(1.00041 0.000201366 0)
(0.99946 -3.32887e-05 0)
(1.00059 0.000203122 0)
(0.999762 0.000592382 0)
(1.00119 0.000338375 0)
(1.00035 7.5596e-05 0)
(1.0005 0.000595484 0)
(0.999839 0.00118668 0)
(1.00081 0.00115776 0)
(1.00097 0.000997021 0)
(1.00141 0.000897657 0)
(1.00127 0.00100622 0)
(1.0015 0.000926438 0)
(1.0015 0.00092753 0)
(1.0018 0.000734666 0)
(1.00202 0.00064916 0)
(1.00244 0.000374848 0)
(1.0026 0.000277018 0)
(1.00264 9.50985e-05 0)
(1.00235 0.00013734 0)
(1.0004 0.000204108 0)
(0.999486 6.06667e-05 0)
(1.00067 0.000209386 0)
(0.99982 0.00057929 0)
(1.00116 0.000458572 0)
(1.00044 0.000213628 0)