/*--------------------------------*- C++ -*----------------------------------*\
| =========                 |                                                 |
| \\      /  F ield         | OpenFOAM: The Open Source CFD Toolbox           |
|  \\    /   O peration     | Version:  2506                                  |
|   \\  /    A nd           | Website:  www.openfoam.com                      |
|    \\/     M anipulation  |                                                 |
\*---------------------------------------------------------------------------*/
FoamFile
{
    version     2.0;
    format      ascii;
    arch        "LSB;label=32;scalar=64";
    class       surfaceScalarField;
    location    "2.15";
    object      phi;
}
// * * * * * * * * * * * * * * * * * * * * * * * * * * * * * * * * * * * * * //

dimensions      [0 3 -1 0 0 0 0];

oriented        oriented;

internalField   nonuniform List<scalar> 
19000
(
1.17553e-06
-2.60796e-07
1.19026e-06
1.17111e-07
1.17375e-06
3.8661e-07
1.11653e-06
1.26709e-07
1.15447e-06
-4.20938e-07
1.2114e-06
-5.47584e-07
1.19841e-06
-3.52111e-07
1.1844e-06
1.13538e-07
1.18803e-06
6.51064e-07
1.14043e-06
1.96909e-07
1.1546e-06
5.05671e-07
1.12677e-06
-1.09308e-07
1.14772e-06
-2.08305e-07
1.14543e-06
-1.82593e-07
1.15198e-06
-3.03938e-07
1.15662e-06
-2.17777e-07
1.16516e-06
-2.77206e-07
1.1601e-06
-1.78321e-07
1.16463e-06
-1.66886e-07
-2.7307e-08
1.13692e-06
1.23188e-06
-2.68411e-07
1.24878e-06
1.00207e-07
1.22897e-06
4.06419e-07
1.17661e-06
1.79076e-07
1.21133e-06
-4.55662e-07
1.26545e-06
-6.01707e-07
1.25458e-06
-3.41241e-07
1.24419e-06
1.23925e-07
1.24065e-06
6.54611e-07
1.20122e-06
2.36331e-07
1.20345e-06
5.03448e-07
1.19048e-06
-9.63411e-08
1.19878e-06
-2.1661e-07
1.2109e-06
-1.94704e-07
1.2053e-06
-2.98348e-07
1.22447e-06
-2.36941e-07
1.21537e-06
-2.68109e-07
1.23102e-06
-1.93972e-07
1.20947e-06
-1.45335e-07
-3.73102e-08
1.21947e-06
1.28918e-06
-2.74812e-07
1.30983e-06
7.95578e-08
1.28741e-06
4.28847e-07
1.24393e-06
2.22554e-07
1.27001e-06
-4.81749e-07
1.32086e-06
-6.5255e-07
1.3126e-06
-3.32985e-07
1.30556e-06
1.30963e-07
1.29579e-06
6.64381e-07
1.26827e-06
2.63858e-07
1.26213e-06
5.09589e-07
1.26091e-06
-9.51274e-08
1.25821e-06
-2.13908e-07
1.27516e-06
-2.11651e-07
1.26673e-06
-2.89918e-07
1.28337e-06
-2.53584e-07
1.27658e-06
-2.61322e-07
1.28485e-06
-2.02238e-07
1.27344e-06
-1.3392e-07
-3.12278e-08
1.26735e-06
1.34775e-06
-2.78457e-07
1.37121e-06
5.60973e-08
1.34885e-06
4.51205e-07
1.31569e-06
2.55716e-07
1.33047e-06
-4.96533e-07
1.37617e-06
-6.98247e-07
1.37189e-06
-3.28709e-07
1.36715e-06
1.35703e-07
1.35571e-06
6.75826e-07
1.33748e-06
2.82088e-07
1.33028e-06
5.16783e-07
1.33203e-06
-9.68743e-08
1.32555e-06
-2.07423e-07
1.33811e-06
-2.24216e-07
1.33373e-06
-2.85534e-07
1.34288e-06
-2.62731e-07
1.34107e-06
-2.59519e-07
1.34403e-06
-2.05192e-07
1.33743e-06
-1.27327e-07
-2.31183e-08
1.32932e-06
1.4085e-06
-2.78599e-07
1.43202e-06
3.25713e-08
1.41337e-06
4.69854e-07
1.38979e-06
2.79303e-07
1.39361e-06
-5.00354e-07
1.43127e-06
-7.35914e-07
1.43265e-06
-3.3008e-07
1.42933e-06
1.39017e-07
1.4204e-06
6.84754e-07
1.40807e-06
2.94419e-07
1.40393e-06
5.20921e-07
1.40386e-06
-9.68023e-08
1.39686e-06
-2.00417e-07
1.40388e-06
-2.31243e-07
1.40183e-06
-2.83483e-07
1.40696e-06
-2.67863e-07
1.40565e-06
-2.58204e-07
1.40755e-06
-2.07097e-07
1.4019e-06
-1.21672e-07
-1.57977e-08
1.39458e-06
1.47265e-06
-2.75568e-07
1.49318e-06
1.20411e-08
1.48128e-06
4.81749e-07
1.46564e-06
2.94941e-07
1.46086e-06
-4.9557e-07
1.48802e-06
-7.63077e-07
1.49472e-06
-3.36781e-07
1.49351e-06
1.40224e-07
1.48895e-06
6.89314e-07
1.48059e-06
3.02785e-07
1.47997e-06
5.21541e-07
1.47759e-06
-9.44282e-08
1.47019e-06
-1.93012e-07
1.4733e-06
-2.34357e-07
1.47102e-06
-2.81198e-07
1.47407e-06
-2.70918e-07
1.47187e-06
-2.55995e-07
1.4724e-06
-2.0763e-07
1.46788e-06
-1.17155e-07
-8.44964e-09
1.46053e-06
1.54108e-06
-2.70428e-07
1.55666e-06
-3.54561e-09
1.55265e-06
4.85766e-07
1.54361e-06
3.03978e-07
1.5331e-06
-4.8506e-07
1.54891e-06
-7.78885e-07
1.55823e-06
-3.46106e-07
1.56025e-06
1.38209e-07
1.56037e-06
6.89195e-07
1.55526e-06
3.07893e-07
1.55741e-06
5.19394e-07
1.55359e-06
-9.06162e-08
1.54568e-06
-1.85096e-07
1.54607e-06
-2.34754e-07
1.54276e-06
-2.77887e-07
1.54375e-06
-2.71905e-07
1.54086e-06
-2.53102e-07
1.53911e-06
-2.05887e-07
1.53555e-06
-1.13596e-07
-9.52765e-10
1.52806e-06
1.61402e-06
-2.64323e-07
1.62439e-06
-1.39148e-08
1.62732e-06
4.82843e-07
1.62396e-06
3.07332e-07
1.61022e-06
-4.71318e-07
1.61559e-06
-7.84255e-07
1.62404e-06
-3.54559e-07
1.62938e-06
1.32869e-07
1.63395e-06
6.8463e-07
1.63193e-06
3.09911e-07
1.63633e-06
5.14991e-07
1.63181e-06
-8.60876e-08
1.62375e-06
-1.7704e-07
1.62205e-06
-2.3305e-07
1.61788e-06
-2.73718e-07
1.61653e-06
-2.7056e-07
1.61312e-06
-2.49696e-07
1.60887e-06
-2.01628e-07
1.60565e-06
-1.10383e-07
6.5387e-09
1.59816e-06
1.69127e-06
-2.58023e-07
1.69742e-06
-2.00564e-08
1.70519e-06
4.7507e-07
1.70664e-06
3.05883e-07
1.69152e-06
-4.56204e-07
1.68852e-06
-7.81247e-07
1.69353e-06
-3.59572e-07
1.70111e-06
1.25291e-07
1.70958e-06
6.76161e-07
1.71054e-06
3.08949e-07
1.71709e-06
5.08442e-07
1.71225e-06
-8.12556e-08
1.70458e-06
-1.69366e-07
1.70118e-06
-2.29651e-07
1.69658e-06
-2.69121e-07
1.69289e-06
-2.66865e-07
1.68904e-06
-2.45847e-07
1.68241e-06
-1.94994e-07
1.67898e-06
-1.06959e-07
1.38412e-08
1.67168e-06
1.77256e-06
-2.51862e-07
1.77588e-06
-2.33764e-08
1.78634e-06
4.6461e-07
1.79155e-06
3.00679e-07
1.7763e-06
-4.40961e-07
1.76732e-06
-7.72269e-07
1.76792e-06
-3.60163e-07
1.77623e-06
1.16975e-07
1.78779e-06
6.64599e-07
1.79141e-06
3.05329e-07
1.8001e-06
4.99753e-07
1.79518e-06
-7.63343e-08
1.7883e-06
-1.62483e-07
1.78351e-06
-2.24862e-07
1.77892e-06
-2.64539e-07
1.77308e-06
-2.61021e-07
1.76888e-06
-2.41644e-07
1.76024e-06
-1.86355e-07
1.75614e-06
-1.02863e-07
2.07194e-08
1.74927e-06
1.8578e-06
-2.45911e-07
1.85947e-06
-2.50496e-08
1.871e-06
4.53078e-07
1.87888e-06
2.92804e-07
1.86419e-06
-4.26277e-07
1.85142e-06
-7.59498e-07
1.84791e-06
-3.56646e-07
1.8558e-06
1.09085e-07
1.86955e-06
6.50841e-07
1.87525e-06
2.9963e-07
1.88596e-06
4.89049e-07
1.881e-06
-7.13791e-08
1.87514e-06
-1.56623e-07
1.86916e-06
-2.18876e-07
1.86494e-06
-2.60325e-07
1.85726e-06
-2.53344e-07
1.8528e-06
-2.37177e-07
1.84271e-06
-1.76272e-07
1.83755e-06
-9.76983e-08
2.68806e-08
1.83139e-06
1.94707e-06
-2.40137e-07
1.94784e-06
-2.58253e-08
1.9595e-06
4.41417e-07
1.96913e-06
2.83178e-07
1.95523e-06
-4.12382e-07
1.94032e-06
-7.44588e-07
1.93366e-06
-3.49985e-07
1.94056e-06
1.02185e-07
1.95576e-06
6.35638e-07
1.96284e-06
2.92558e-07
1.9753e-06
4.76586e-07
1.97023e-06
-6.63103e-08
1.96547e-06
-1.51866e-07
1.95838e-06
-2.11785e-07
1.95475e-06
-2.56695e-07
1.94562e-06
-2.4421e-07
1.94088e-06
-2.3244e-07
1.93004e-06
-1.6543e-07
1.92348e-06
-9.11403e-08
3.20084e-08
1.91836e-06
2.04053e-06
-2.34481e-07
2.04084e-06
-2.61333e-08
2.05221e-06
4.30047e-07
2.06293e-06
2.72458e-07
2.04974e-06
-3.99187e-07
2.03375e-06
-7.28604e-07
2.02502e-06
-3.41247e-07
2.03083e-06
9.63692e-08
2.04699e-06
6.19481e-07
2.05478e-06
2.84767e-07
2.06871e-06
4.62654e-07
2.06337e-06
-6.09667e-08
2.05971e-06
-1.48209e-07
2.05154e-06
-2.03616e-07
2.04854e-06
-2.53696e-07
2.03836e-06
-2.34028e-07
2.0332e-06
-2.27281e-07
2.02232e-06
-1.54552e-07
2.01422e-06
-8.30379e-08
3.59063e-08
2.01032e-06
2.13839e-06
-2.28871e-07
2.1385e-06
-2.62393e-08
2.14948e-06
4.19063e-07
2.16087e-06
2.61067e-07
2.14814e-06
-3.86454e-07
2.13166e-06
-7.12124e-07
2.12172e-06
-3.31304e-07
2.12659e-06
9.14902e-08
2.14346e-06
6.02611e-07
2.15147e-06
2.76765e-07
2.16664e-06
4.47479e-07
2.16084e-06
-5.51673e-08
2.15823e-06
-1.45599e-07
2.14901e-06
-1.94398e-07
2.14653e-06
-2.51215e-07
2.13572e-06
-2.2322e-07
2.12986e-06
-2.21414e-07
2.11959e-06
-1.44289e-07
2.11003e-06
-7.34728e-08
3.8625e-08
2.10731e-06
2.24085e-06
-2.23229e-07
2.24094e-06
-2.63313e-08
2.25159e-06
4.08408e-07
2.26341e-06
2.49253e-07
2.25088e-06
-3.73926e-07
2.23414e-06
-6.9538e-07
2.22359e-06
-3.20762e-07
2.22774e-06
8.73408e-08
2.24527e-06
5.85088e-07
2.25314e-06
2.68897e-07
2.26941e-06
4.31201e-07
2.26301e-06
-4.87597e-08
2.26136e-06
-1.43956e-07
2.25118e-06
-1.84212e-07
2.24896e-06
-2.48999e-07
2.23797e-06
-2.12227e-07
2.23101e-06
-2.14451e-07
2.22186e-06
-1.35142e-07
2.21118e-06
-6.2794e-08
4.05232e-08
2.20928e-06
2.34814e-06
-2.17489e-07
2.34835e-06
-2.65439e-08
2.35877e-06
3.97983e-07
2.37087e-06
2.37157e-07
2.35835e-06
-3.61411e-07
2.34138e-06
-6.78409e-07
2.33063e-06
-3.10007e-07
2.33422e-06
8.37475e-08
2.35244e-06
5.66866e-07
2.35995e-06
2.61387e-07
2.37726e-06
4.13899e-07
2.37015e-06
-4.16535e-08
2.36936e-06
-1.43163e-07
2.35837e-06
-1.73225e-07
2.35607e-06
-2.46702e-07
2.34534e-06
-2.01498e-07
2.3369e-06
-2.0601e-07
2.32915e-06
-1.27396e-07
2.31784e-06
-5.1484e-08
4.21192e-08
2.31625e-06
2.46051e-06
-2.11604e-07
2.46093e-06
-2.69622e-08
2.47121e-06
3.87701e-07
2.4835e-06
2.24864e-07
2.4709e-06
-3.48809e-07
2.45365e-06
-6.61156e-07
2.44293e-06
-2.99285e-07
2.44607e-06
8.06086e-08
2.46507e-06
5.47863e-07
2.47207e-06
2.54382e-07
2.49034e-06
3.95635e-07
2.48253e-06
-3.3845e-08
2.48241e-06
-1.43049e-07
2.47089e-06
-1.61704e-07
2.46811e-06
-2.43913e-07
2.45807e-06
-1.91459e-07
2.4479e-06
-1.95844e-07
2.44153e-06
-1.21025e-07
2.43016e-06
-4.01107e-08
4.39326e-08
2.42834e-06
2.57824e-06
-2.05546e-07
2.5789e-06
-2.76278e-08
2.58911e-06
3.77496e-07
2.60153e-06
2.12436e-07
2.58883e-06
-3.36106e-07
2.57121e-06
-6.43533e-07
2.56069e-06
-2.88765e-07
2.5634e-06
7.78985e-08
2.58326e-06
5.28007e-07
2.58967e-06
2.47963e-07
2.60881e-06
3.76503e-07
2.60039e-06
-2.54323e-08
2.60073e-06
-1.43383e-07
2.58902e-06
-1.49996e-07
2.58531e-06
-2.4021e-07
2.57632e-06
-1.82462e-07
2.56443e-06
-1.8396e-07
2.55905e-06
-1.1564e-07
2.54828e-06
-2.93414e-08
4.63867e-08
2.54583e-06
2.70159e-06
-1.99307e-07
2.70251e-06
-2.85495e-08
2.71269e-06
3.67316e-07
2.72518e-06
1.99942e-07
2.71243e-06
-3.23353e-07
2.69434e-06
-6.25445e-07
2.68416e-06
-2.78585e-07
2.68641e-06
7.56499e-08
2.70716e-06
5.07258e-07
2.71297e-06
2.42153e-07
2.73283e-06
3.56645e-07
2.72401e-06
-1.66109e-08
2.7245e-06
-1.43874e-07
2.713e-06
-1.38494e-07
2.70797e-06
-2.35187e-07
2.70025e-06
-1.74733e-07
2.68691e-06
-1.70623e-07
2.68189e-06
-1.10627e-07
2.67237e-06
-1.98119e-08
4.97094e-08
2.66904e-06
2.83085e-06
-1.92889e-07
2.83201e-06
-2.97127e-08
2.84222e-06
3.57107e-07
2.85469e-06
1.8747e-07
2.84198e-06
-3.10641e-07
2.82334e-06
-6.06798e-07
2.81362e-06
-2.68871e-07
2.81535e-06
7.39211e-08
2.83698e-06
4.85626e-07
2.84223e-06
2.36903e-07
2.8626e-06
3.36273e-07
2.85365e-06
-7.65786e-09
2.85397e-06
-1.44199e-07
2.84306e-06
-1.27579e-07
2.83639e-06
-2.28521e-07
2.82999e-06
-1.68329e-07
2.81565e-06
-1.56286e-07
2.81037e-06
-1.05344e-07
2.80255e-06
-1.19931e-08
5.38881e-08
2.79837e-06
2.96631e-06
-1.86303e-07
2.96768e-06
-3.10855e-08
2.97799e-06
3.46805e-07
2.99033e-06
1.7513e-07
2.97777e-06
-2.98088e-07
2.95847e-06
-5.87497e-07
2.94934e-06
-2.59739e-07
2.9505e-06
7.27602e-08
2.97295e-06
4.63178e-07
2.97776e-06
2.32096e-07
2.99837e-06
3.15662e-07
2.98961e-06
1.10383e-09
2.98944e-06
-1.44032e-07
2.97943e-06
-1.17565e-07
2.97096e-06
-2.20058e-07
2.9657e-06
-1.6307e-07
2.95093e-06
-1.41509e-07
2.94489e-06
-9.93115e-08
2.93895e-06
-6.04994e-09
5.86537e-08
2.93419e-06
3.10827e-06
-1.79566e-07
3.1098e-06
-3.26201e-08
3.12028e-06
3.36328e-07
3.13236e-06
1.63051e-07
3.1201e-06
-2.85833e-07
3.10006e-06
-5.67451e-07
3.0916e-06
-2.51284e-07
3.09219e-06
7.2176e-08
3.11532e-06
4.40041e-07
3.11988e-06
2.27539e-07
3.1404e-06
2.95143e-07
3.13216e-06
9.34221e-09
3.13121e-06
-1.43086e-07
3.12231e-06
-1.08656e-07
3.11208e-06
-2.09827e-07
3.1076e-06
-1.58594e-07
3.09296e-06
-1.26872e-07
3.08591e-06
-9.22551e-08
3.08171e-06
-1.85773e-09
6.35551e-08
3.07681e-06
3.25704e-06
-1.72699e-07
3.25867e-06
-3.42515e-08
3.26942e-06
3.25577e-07
3.2811e-06
1.51377e-07
3.26928e-06
-2.74018e-07
3.24842e-06
-5.46586e-07
3.24069e-06
-2.43559e-07
3.24075e-06
7.21163e-08
3.26438e-06
4.16411e-07
3.26895e-06
2.22975e-07
3.28901e-06
2.75084e-07
3.28159e-06
1.67558e-08
3.27966e-06
-1.41151e-07
3.27192e-06
-1.00917e-07
3.26009e-06
-1.98002e-07
3.25598e-06
-1.54479e-07
3.24196e-06
-1.12853e-07
3.23381e-06
-8.41005e-08
3.23106e-06
8.90523e-10
6.80838e-08
3.22653e-06
3.41296e-06
-1.65725e-07
3.4146e-06
-3.58963e-08
3.42574e-06
3.14438e-07
3.43687e-06
1.40253e-07
3.42563e-06
-2.62785e-07
3.40391e-06
-5.24865e-07
3.39691e-06
-2.36555e-07
3.39657e-06
7.24589e-08
3.42044e-06
3.92539e-07
3.42529e-06
2.18126e-07
3.44456e-06
2.55808e-07
3.43817e-06
2.31517e-08
3.43516e-06
-1.38141e-07
3.4285e-06
-9.4265e-08
3.41537e-06
-1.84866e-07
3.41121e-06
-1.5032e-07
3.39815e-06
-9.97913e-08
3.38897e-06
-7.49254e-08
3.38727e-06
2.59274e-09
7.17686e-08
3.38358e-06
3.57636e-06
-1.58673e-07
3.57792e-06
-3.74528e-08
3.58957e-06
3.02789e-07
3.60001e-06
1.29812e-07
3.58947e-06
-2.52249e-07
3.56691e-06
-5.02309e-07
3.56055e-06
-2.30191e-07
3.56e-06
7.30118e-08
3.58381e-06
3.6873e-07
3.58922e-06
2.12709e-07
3.60744e-06
2.37592e-07
3.60214e-06
2.84486e-08
3.59809e-06
-1.34092e-07
3.59234e-06
-8.85137e-08
3.57822e-06
-1.7074e-07
3.57369e-06
-1.45789e-07
3.56181e-06
-8.79152e-08
3.55176e-06
-6.48725e-08
3.55068e-06
3.66727e-09
7.42249e-08
3.54823e-06
3.74761e-06
-1.51577e-07
3.74896e-06
-3.88058e-08
3.76124e-06
2.90512e-07
3.7709e-06
1.20154e-07
3.76112e-06
-2.42476e-07
3.73783e-06
-4.79014e-07
3.73195e-06
-2.24312e-07
3.73142e-06
7.35391e-08
3.75486e-06
3.45294e-07
3.76107e-06
2.06494e-07
3.77806e-06
2.20605e-07
3.77382e-06
3.26894e-08
3.76886e-06
-1.29135e-07
3.76377e-06
-8.34228e-08
3.74899e-06
-1.55955e-07
3.74382e-06
-1.40619e-07
3.7333e-06
-7.7396e-08
3.72255e-06
-5.41218e-08
3.72165e-06
4.56641e-09
7.5164e-08
3.72071e-06
3.92708e-06
-1.44472e-07
3.92812e-06
-3.98393e-08
3.94111e-06
2.77516e-07
3.94994e-06
1.11327e-07
3.94092e-06
-2.33459e-07
3.91708e-06
-4.55167e-07
3.91147e-06
-2.18703e-07
3.91123e-06
7.37754e-08
3.93399e-06
3.22535e-07
3.94115e-06
1.99337e-07
3.95686e-06
2.04891e-07
3.95351e-06
3.60374e-08
3.94783e-06
-1.23448e-07
3.94317e-06
-7.87709e-08
3.928e-06
-1.40784e-07
3.92201e-06
-1.34622e-07
3.91294e-06
-6.83325e-08
3.90176e-06
-4.29421e-08
3.90053e-06
5.79755e-09
7.44346e-08
3.90126e-06
4.11517e-06
-1.37395e-07
4.11578e-06
-4.04504e-08
4.12955e-06
2.63748e-07
4.13756e-06
1.03317e-07
4.12921e-06
-2.25107e-07
4.10508e-06
-4.3104e-07
4.09949e-06
-2.13106e-07
4.09981e-06
7.34539e-08
4.12164e-06
3.00705e-07
4.12976e-06
1.91211e-07
4.14428e-06
1.90376e-07
4.14161e-06
3.87103e-08
4.13534e-06
-1.17186e-07
4.13099e-06
-7.44198e-08
4.11564e-06
-1.25435e-07
4.10869e-06
-1.27665e-07
4.10106e-06
-6.0712e-08
4.08987e-06
-3.17496e-08
4.0878e-06
7.87098e-09
7.21249e-08
4.09011e-06
4.31228e-06
-1.30377e-07
4.3124e-06
-4.05705e-08
4.32693e-06
2.49225e-07
4.33421e-06
9.60363e-08
4.32635e-06
-2.17246e-07
4.30228e-06
-4.06978e-07
4.29643e-06
-2.07251e-07
4.29754e-06
7.23427e-08
4.31828e-06
2.79966e-07
4.32728e-06
1.82212e-07
4.34074e-06
1.76917e-07
4.33852e-06
4.09302e-08
4.33178e-06
-1.10446e-07
4.32766e-06
-7.03014e-08
4.31232e-06
-1.101e-07
4.30431e-06
-1.19655e-07
4.29799e-06
-5.43849e-08
4.2873e-06
-2.10629e-08
4.28404e-06
1.11302e-08
6.86733e-08
4.28749e-06
4.51884e-06
-1.23441e-07
4.51844e-06
-4.01736e-08
4.53364e-06
2.3403e-07
4.54035e-06
8.93236e-08
4.53272e-06
-2.09622e-07
4.50912e-06
-3.83372e-07
4.50276e-06
-2.00892e-07
4.50482e-06
7.02845e-08
4.52442e-06
2.60365e-07
4.5341e-06
1.7253e-07
4.54666e-06
1.64361e-07
4.54469e-06
4.28941e-08
4.53754e-06
-1.03293e-07
4.53359e-06
-6.63496e-08
4.51847e-06
-9.49775e-08
4.5094e-06
-1.10585e-07
4.5041e-06
-4.90928e-08
4.49439e-06
-1.13471e-08
4.48996e-06
1.55609e-08
6.48476e-08
4.49378e-06
4.73527e-06
-1.16599e-07
4.73439e-06
-3.9293e-08
4.75009e-06
2.18337e-07
4.75647e-06
8.29375e-08
4.74878e-06
-2.01926e-07
4.72603e-06
-3.60622e-07
4.71898e-06
-1.93845e-07
4.722e-06
6.72678e-08
4.74058e-06
2.41783e-07
4.75068e-06
1.62427e-07
4.76246e-06
1.52579e-07
4.7606e-06
4.47567e-08
4.75304e-06
-9.57328e-08
4.7492e-06
-6.25076e-08
4.73448e-06
-8.02629e-08
4.72446e-06
-1.00557e-07
4.71988e-06
-4.45145e-08
4.71145e-06
-2.91951e-09
4.70619e-06
2.08158e-08
6.14974e-08
4.70955e-06
4.96205e-06
-1.09854e-07
4.96078e-06
-3.80234e-08
4.97671e-06
2.02412e-07
4.98309e-06
7.65555e-08
4.97499e-06
-1.93826e-07
4.95344e-06
-3.39068e-07
4.94563e-06
-1.86043e-07
4.94943e-06
6.34735e-08
4.96723e-06
2.23982e-07
4.97752e-06
1.52134e-07
4.98859e-06
1.4151e-07
4.9867e-06
4.66524e-08
4.97873e-06
-8.77644e-08
4.97492e-06
-5.86988e-08
4.96082e-06
-6.61674e-08
4.94999e-06
-8.97286e-08
4.94586e-06
-4.03793e-08
4.93883e-06
4.11e-09
4.93324e-06
2.64047e-08
5.92015e-08
4.93554e-06
5.19966e-06
-1.03193e-07
5.19815e-06
-3.65169e-08
5.21396e-06
1.866e-07
5.22071e-06
6.98076e-08
5.21194e-06
-1.85054e-07
5.19173e-06
-3.18857e-07
5.18332e-06
-1.77635e-07
5.18754e-06
5.92525e-08
5.20479e-06
2.06734e-07
5.21515e-06
1.41773e-07
5.22549e-06
1.31173e-07
5.22345e-06
4.8686e-08
5.21503e-06
-7.93439e-08
5.21123e-06
-5.49024e-08
5.19796e-06
-5.2897e-08
5.18654e-06
-7.83018e-08
5.18266e-06
-3.65049e-08
5.17692e-06
9.8541e-09
5.17147e-06
3.18572e-08
5.81182e-08
5.17255e-06
5.44859e-06
-9.65985e-08
5.44705e-06
-3.49728e-08
5.46234e-06
1.71308e-07
5.46986e-06
6.22884e-08
5.46027e-06
-1.75462e-07
5.44125e-06
-2.99836e-07
5.43265e-06
-1.69038e-07
5.43692e-06
5.49865e-08
5.45365e-06
1.90006e-07
5.46405e-06
1.31365e-07
5.47358e-06
1.2165e-07
5.4713e-06
5.09652e-08
5.4624e-06
-7.04452e-08
5.45867e-06
-5.11764e-08
5.44647e-06
-4.06979e-08
5.4346e-06
-6.64317e-08
5.43083e-06
-3.27341e-08
5.42626e-06
1.44303e-08
5.42122e-06
3.68912e-08
5.80563e-08
5.42128e-06
5.70941e-06
-9.0046e-08
5.70805e-06
-3.36206e-08
5.72241e-06
1.56954e-07
5.73103e-06
5.3661e-08
5.72071e-06
-1.65133e-07
5.70246e-06
-2.81595e-07
5.69416e-06
-1.60732e-07
5.6982e-06
5.09409e-08
5.71421e-06
1.74002e-07
5.72462e-06
1.20954e-07
5.73325e-06
1.13014e-07
5.73067e-06
5.35462e-08
5.72136e-06
-6.11311e-08
5.71782e-06
-4.76396e-08
5.70693e-06
-2.98021e-08
5.69476e-06
-5.42619e-08
5.69091e-06
-2.88833e-08
5.68742e-06
1.79142e-08
5.68293e-06
4.13826e-08
5.86929e-08
5.68229e-06
5.98266e-06
-8.35097e-08
5.98174e-06
-3.27014e-08
5.9948e-06
1.43887e-07
6.00463e-06
4.38393e-08
5.99398e-06
-1.54489e-07
5.97593e-06
-2.63546e-07
5.96821e-06
-1.5301e-07
5.97196e-06
4.71909e-08
5.9868e-06
1.59165e-07
5.99699e-06
1.1076e-07
6.00478e-06
1.0523e-07
6.00212e-06
5.6203e-08
5.99259e-06
-5.16016e-08
5.98931e-06
-4.43553e-08
5.97989e-06
-2.0391e-08
5.96759e-06
-4.19536e-08
5.96343e-06
-2.47246e-08
5.961e-06
2.03448e-08
5.95711e-06
4.52654e-08
5.97366e-08
5.95607e-06
6.26895e-06
-7.69712e-08
6.26867e-06
-3.24253e-08
6.28031e-06
1.32248e-07
6.29094e-06
3.32152e-08
6.28078e-06
-1.44333e-07
6.26237e-06
-2.45131e-07
6.25518e-06
-1.45828e-07
6.25864e-06
4.37359e-08
6.2717e-06
1.46103e-07
6.28121e-06
1.01249e-07
6.2886e-06
9.78447e-08
6.28639e-06
5.84057e-08
6.27685e-06
-4.20621e-08
6.27373e-06
-4.12306e-08
6.26591e-06
-1.25714e-08
6.25371e-06
-2.97566e-08
6.24901e-06
-2.00263e-08
6.24754e-06
2.18195e-08
6.24436e-06
4.84412e-08
6.09941e-08
6.24311e-06
6.56892e-06
-7.04257e-08
6.56943e-06
-3.29342e-08
6.5797e-06
1.2198e-07
6.59046e-06
2.24542e-08
6.58164e-06
-1.35512e-07
6.56268e-06
-2.26165e-07
6.55553e-06
-1.38683e-07
6.55874e-06
4.05301e-08
6.56983e-06
1.35007e-07
6.57839e-06
9.26881e-08
6.58591e-06
9.03304e-08
6.58436e-06
5.99506e-08
6.57495e-06
-3.26472e-08
6.57175e-06
-3.80303e-08
6.56547e-06
-6.29761e-09
6.55377e-06
-1.80493e-08
6.54835e-06
-1.46076e-08
6.54762e-06
2.25496e-08
6.5453e-06
5.07579e-08
6.23383e-08
6.54396e-06
6.88325e-06
-6.38847e-08
6.88459e-06
-3.42764e-08
6.89372e-06
1.12853e-07
6.90387e-06
1.23022e-08
6.89699e-06
-1.2863e-07
6.87777e-06
-2.06949e-07
6.87002e-06
-1.30928e-07
6.87324e-06
3.73023e-08
6.88263e-06
1.25619e-07
6.89002e-06
8.53054e-08
6.89763e-06
8.27112e-08
6.89683e-06
6.07595e-08
6.88758e-06
-2.34034e-08
6.88404e-06
-3.44918e-08
6.8792e-06
-1.45286e-09
6.86832e-06
-7.17394e-09
6.86218e-06
-8.46209e-09
6.86185e-06
2.28767e-08
6.86054e-06
5.20718e-08
6.36469e-08
6.85923e-06
7.21263e-06
-5.7382e-08
7.21474e-06
-3.63811e-08
7.22306e-06
1.04527e-07
7.23196e-06
3.40389e-09
7.2272e-06
-1.23864e-07
7.2084e-06
-1.88151e-07
7.19963e-06
-1.22155e-07
7.20312e-06
3.38095e-08
7.21106e-06
1.17677e-07
7.21691e-06
7.94552e-08
7.22434e-06
7.52838e-08
7.22442e-06
6.06791e-08
7.21544e-06
-1.44265e-08
7.21139e-06
-3.04447e-08
7.20772e-06
2.21862e-09
7.19798e-06
2.57221e-09
7.19126e-06
-1.74392e-09
7.19094e-06
2.31986e-08
7.19067e-06
5.23342e-08
6.4734e-08
7.18959e-06
7.55782e-06
-5.09739e-08
7.56047e-06
-3.90348e-08
7.56847e-06
9.65304e-08
7.57556e-06
-3.69113e-09
7.57269e-06
-1.20987e-07
7.55524e-06
-1.70711e-07
7.5454e-06
-1.12305e-07
7.54897e-06
3.02369e-08
7.55571e-06
1.10934e-07
7.55985e-06
7.5319e-08
7.5667e-06
6.84282e-08
7.56773e-06
5.96553e-08
7.55924e-06
-5.93457e-09
7.55459e-06
-2.57988e-08
7.55177e-06
5.03821e-09
7.54336e-06
1.09784e-08
7.53633e-06
5.28905e-09
7.53568e-06
2.38515e-08
7.53634e-06
5.16681e-08
6.53595e-08
7.53572e-06
7.91957e-06
-4.4737e-08
7.92247e-06
-4.19322e-08
7.93067e-06
8.8335e-08
7.93556e-06
-8.58502e-09
7.93422e-06
-1.19647e-07
7.91873e-06
-1.55222e-07
7.90826e-06
-1.01831e-07
7.91147e-06
2.70212e-08
7.917e-06
1.05407e-07
7.91957e-06
7.27499e-08
7.92558e-06
6.2416e-08
7.92746e-06
5.77829e-08
7.91964e-06
1.87631e-09
7.91441e-06
-2.0562e-08
7.91219e-06
7.25848e-09
7.90517e-06
1.79996e-08
7.89811e-06
1.23481e-08
7.89694e-06
2.50178e-08
7.89826e-06
5.03496e-08
6.53051e-08
7.89831e-06
8.29871e-06
-3.87635e-08
8.3015e-06
-4.4725e-08
8.3103e-06
7.95398e-08
8.3128e-06
-1.10938e-08
8.31252e-06
-1.19364e-07
8.29928e-06
-1.41976e-07
8.2886e-06
-9.11551e-08
8.29069e-06
2.49339e-08
8.29533e-06
1.00759e-07
8.29695e-06
7.11322e-08
8.30193e-06
5.74384e-08
8.30432e-06
5.53969e-08
8.29737e-06
8.82127e-09
8.2917e-06
-1.4891e-08
8.28978e-06
9.17894e-09
8.28415e-06
2.36309e-08
8.27733e-06
1.91654e-08
8.2756e-06
2.6751e-08
8.27724e-06
4.87096e-08
6.44816e-08
8.27806e-06
8.69605e-06
-3.315e-08
8.69849e-06
-4.71633e-08
8.70785e-06
7.01739e-08
8.70821e-06
-1.14489e-08
8.70778e-06
-1.1894e-07
8.69719e-06
-1.31379e-07
8.68552e-06
-7.94921e-08
8.68563e-06
2.48239e-08
8.69127e-06
9.51174e-08
8.69285e-06
6.95575e-08
8.69672e-06
5.3564e-08
8.69916e-06
5.29651e-08
8.69316e-06
1.48132e-08
8.68728e-06
-9.0107e-09
8.68542e-06
1.10437e-08
8.6811e-06
2.79514e-08
8.67478e-06
2.5479e-08
8.67251e-06
2.9026e-08
8.67419e-06
4.70296e-08
6.29533e-08
8.67572e-06
9.11246e-06
-2.79864e-08
9.11436e-06
-4.90694e-08
9.12411e-06
6.04251e-08
9.12252e-06
-9.85376e-09
9.11855e-06
-1.14977e-07
9.10786e-06
-1.20689e-07
9.09514e-06
-6.67722e-08
9.09751e-06
2.24538e-08
9.10581e-06
8.68157e-08
9.10816e-06
6.72135e-08
9.11084e-06
5.08864e-08
9.11293e-06
5.08702e-08
9.10785e-06
1.98938e-08
9.10197e-06
-3.13469e-09
9.10003e-06
1.29927e-08
9.09685e-06
3.11295e-08
9.09129e-06
3.10406e-08
9.08856e-06
3.17508e-08
9.09006e-06
4.55313e-08
6.08567e-08
9.09216e-06
9.54885e-06
-2.33797e-08
9.54988e-06
-5.00962e-08
9.56013e-06
5.01716e-08
9.55661e-06
-6.32569e-09
9.5485e-06
-1.06873e-07
9.5391e-06
-1.11283e-07
9.52881e-06
-5.64817e-08
9.5308e-06
2.04562e-08
9.53999e-06
7.76245e-08
9.5433e-06
6.39076e-08
9.54514e-06
4.90461e-08
9.54673e-06
4.92773e-08
9.54235e-06
2.42754e-08
9.53669e-06
2.52333e-09
9.53461e-06
1.50769e-08
9.53235e-06
3.33891e-08
9.52771e-06
3.56828e-08
9.52472e-06
3.47409e-08
9.52583e-06
4.44207e-08
5.83541e-08
9.52833e-06
1.00062e-05
-1.94037e-08
1.00061e-05
-4.99934e-08
1.00167e-05
3.95104e-08
1.00125e-05
-2.10119e-09
1.00026e-05
-9.70184e-08
9.99463e-06
-1.03275e-07
9.98588e-06
-4.77287e-08
9.98633e-06
2.00078e-08
9.99488e-06
6.90723e-08
9.99894e-06
5.98476e-08
1.00005e-05
4.7526e-08
1.00016e-05
4.81336e-08
9.9977e-06
2.81728e-08
9.99234e-06
7.88568e-09
9.99016e-06
1.72616e-08
9.98861e-06
3.49413e-08
9.98495e-06
3.93386e-08
9.98195e-06
3.77452e-08
9.98253e-06
4.38351e-08
5.56526e-08
9.98523e-06
1.04853e-05
-1.60966e-08
1.0484e-05
-4.86942e-08
1.04948e-05
2.87001e-08
1.04911e-05
1.63863e-09
1.04797e-05
-8.56131e-08
1.04723e-05
-9.58462e-08
1.04653e-05
-4.07416e-08
1.04646e-05
2.0701e-08
1.04716e-05
6.20268e-08
1.04761e-05
5.54143e-08
1.04777e-05
4.59169e-08
1.04785e-05
4.72847e-08
1.0475e-05
3.1672e-08
1.04699e-05
1.2996e-08
1.04677e-05
1.94866e-08
1.04667e-05
3.59804e-08
1.0464e-05
4.20265e-08
1.04612e-05
4.05163e-08
1.04612e-05
4.37796e-08
5.3021e-08
1.04639e-05
1.09874e-05
-1.34645e-08
1.09849e-05
-4.62029e-08
1.09956e-05
1.79854e-08
1.09929e-05
4.35361e-09
1.09803e-05
-7.29971e-08
1.09727e-05
-8.82802e-08
1.09675e-05
-3.55504e-08
1.09663e-05
2.18852e-08
1.09716e-05
5.67754e-08
1.09759e-05
5.11347e-08
1.09777e-05
4.40528e-08
1.09785e-05
4.6531e-08
1.09753e-05
3.48103e-08
1.09705e-05
1.78326e-08
1.09683e-05
2.17421e-08
1.09676e-05
3.6663e-08
1.09658e-05
4.38244e-08
1.09634e-05
4.28537e-08
1.09631e-05
4.41205e-08
5.07293e-08
1.09654e-05
1.15134e-05
-1.14732e-08
1.15098e-05
-4.26801e-08
1.15199e-05
7.88549e-09
1.15187e-05
5.63785e-09
1.15054e-05
-5.97037e-08
1.14971e-05
-7.99927e-08
1.14934e-05
-3.18727e-08
1.14924e-05
2.29147e-08
1.1496e-05
5.31667e-08
1.14996e-05
4.75164e-08
1.15016e-05
4.20213e-08
1.15025e-05
4.56251e-08
1.14998e-05
3.75546e-08
1.14953e-05
2.23574e-08
1.1493e-05
2.40367e-08
1.14925e-05
3.71257e-08
1.14915e-05
4.48826e-08
1.14897e-05
4.46338e-08
1.14892e-05
4.46304e-08
4.89365e-08
1.1491e-05
1.20644e-05
-1.0034e-08
1.206e-05
-3.83299e-08
1.2069e-05
-1.04537e-09
1.20693e-05
5.28592e-09
1.2056e-05
-4.63606e-08
1.20466e-05
-7.0646e-08
1.2044e-05
-2.92122e-08
1.20436e-05
2.3234e-08
1.2046e-05
5.07859e-08
1.20486e-05
4.49153e-08
1.20506e-05
4.004e-08
1.20517e-05
4.45159e-08
1.20495e-05
3.97702e-08
1.20453e-05
2.65586e-08
1.2043e-05
2.63557e-08
1.20427e-05
3.74358e-08
1.20422e-05
4.53644e-08
1.2041e-05
4.5833e-08
1.20406e-05
4.50644e-08
4.76394e-08
1.20419e-05
1.26416e-05
-9.01828e-09
1.26366e-05
-3.33956e-08
1.26438e-05
-8.15921e-09
1.26457e-05
3.33619e-09
1.26331e-05
-3.37756e-08
1.26227e-05
-6.0269e-08
1.26204e-05
-2.69122e-08
1.26211e-05
2.25652e-08
1.26228e-05
4.91154e-08
1.26243e-05
4.33988e-08
1.26259e-05
3.84357e-08
1.26272e-05
4.32315e-08
1.26256e-05
4.13348e-08
1.26218e-05
3.03597e-08
1.26195e-05
2.86713e-08
1.26193e-05
3.7672e-08
1.26192e-05
4.53871e-08
1.26185e-05
4.65384e-08
1.26183e-05
4.52577e-08
4.66779e-08
1.26193e-05
1.32462e-05
-8.25877e-09
1.3241e-05
-2.81987e-08
1.32457e-05
-1.2839e-08
1.32489e-05
6.20398e-11
1.3238e-05
-2.28345e-08
1.32268e-05
-4.91261e-08
1.32242e-05
-2.43013e-08
1.32258e-05
2.09687e-08
1.32274e-05
4.75629e-08
1.3228e-05
4.28185e-08
1.32289e-05
3.75091e-08
1.32303e-05
4.1846e-08
1.32293e-05
4.23175e-08
1.32261e-05
3.35938e-08
1.32238e-05
3.09425e-08
1.32236e-05
3.79074e-08
1.32239e-05
4.5017e-08
1.32236e-05
4.68332e-08
1.32237e-05
4.51932e-08
4.58001e-08
1.32246e-05
1.38795e-05
-7.58488e-09
1.38745e-05
-2.31835e-08
1.38765e-05
-1.48896e-08
1.38805e-05
-3.88838e-09
1.38718e-05
-1.4133e-08
1.38603e-05
-3.76991e-08
1.38569e-05
-2.08449e-08
1.3859e-05
1.88237e-08
1.38609e-05
4.56904e-08
1.38609e-05
4.28527e-08
1.38611e-05
3.73129e-08
1.38623e-05
4.05997e-08
1.38619e-05
4.27683e-08
1.38592e-05
3.62242e-08
1.38571e-05
3.30386e-08
1.38569e-05
3.81839e-08
1.38575e-05
4.43614e-08
1.38576e-05
4.67127e-08
1.38579e-05
4.49701e-08
4.48163e-08
1.38588e-05
1.45429e-05
-6.85022e-09
1.45383e-05
-1.85887e-08
1.45381e-05
-1.46722e-08
1.4542e-05
-7.74822e-09
1.45357e-05
-7.84121e-09
1.45246e-05
-2.65988e-08
1.452e-05
-1.62931e-08
1.45221e-05
1.67129e-08
1.45245e-05
4.33369e-08
1.45243e-05
4.30131e-08
1.45239e-05
3.77779e-08
1.45247e-05
3.97689e-08
1.45247e-05
4.27322e-08
1.45227e-05
3.82786e-08
1.45209e-05
3.48599e-08
1.45206e-05
3.84494e-08
1.45214e-05
4.35643e-08
1.4522e-05
4.61534e-08
1.45223e-05
4.4637e-08
4.37161e-08
1.45234e-05
1.5238e-05
-5.96801e-09
1.52342e-05
-1.47594e-08
1.52322e-05
-1.2682e-08
1.52351e-05
-1.06458e-08
1.5231e-05
-3.78779e-09
1.52209e-05
-1.64325e-08
1.52153e-05
-1.0724e-08
1.52167e-05
1.52671e-08
1.52195e-05
4.0589e-08
1.52196e-05
4.28721e-08
1.52187e-05
3.87069e-08
1.5219e-05
3.94199e-08
1.52193e-05
4.24608e-08
1.52179e-05
3.9709e-08
1.52163e-05
3.64197e-08
1.52161e-05
3.86289e-08
1.5217e-05
4.27032e-08
1.52179e-05
4.52228e-08
1.52185e-05
4.41105e-08
4.26107e-08
1.52196e-05
1.59663e-05
-4.90373e-09
1.59633e-05
-1.18408e-08
1.59602e-05
-9.48672e-09
1.59615e-05
-1.20274e-08
1.59592e-05
-1.43601e-09
1.59505e-05
-7.73826e-09
1.59442e-05
-4.44492e-09
1.59446e-05
1.49147e-08
1.59474e-05
3.7733e-08
1.5948e-05
4.23041e-08
1.5947e-05
3.9709e-08
1.59469e-05
3.95247e-08
1.59472e-05
4.21824e-08
1.59463e-05
4.05754e-08
1.59451e-05
3.7657e-08
1.5945e-05
3.87309e-08
1.59459e-05
4.17603e-08
1.59471e-05
4.4035e-08
1.59479e-05
4.32981e-08
4.15534e-08
1.5949e-05
1.67294e-05
-3.67606e-09
1.67272e-05
-9.64685e-09
1.67235e-05
-5.78558e-09
1.67232e-05
-1.17201e-08
1.67218e-05
-2.39611e-11
1.67148e-05
-7.79157e-10
1.67083e-05
2.0227e-09
1.67075e-05
1.5779e-08
1.67099e-05
3.5255e-08
1.67109e-05
4.13069e-08
1.67102e-05
4.04622e-08
1.67097e-05
3.99691e-08
1.671e-05
4.19727e-08
1.67095e-05
4.10736e-08
1.67086e-05
3.8504e-08
1.67086e-05
3.87589e-08
1.67096e-05
4.07589e-08
1.6711e-05
4.26403e-08
1.67121e-05
4.21943e-08
4.04702e-08
1.67132e-05
1.7529e-05
-2.34807e-09
1.75274e-05
-8.02996e-09
1.75237e-05
-2.07811e-09
1.75218e-05
-9.81111e-09
1.75206e-05
1.21803e-09
1.75153e-05
4.47799e-09
1.75092e-05
8.14443e-09
1.75072e-05
1.77342e-08
1.75089e-05
3.35921e-08
1.75102e-05
4.00209e-08
1.75098e-05
4.08555e-08
1.75093e-05
4.04698e-08
1.75094e-05
4.18925e-08
1.75091e-05
4.12993e-08
1.75086e-05
3.9037e-08
1.75087e-05
3.86321e-08
1.75097e-05
3.97709e-08
1.75113e-05
4.10811e-08
1.75126e-05
4.08186e-08
3.92665e-08
1.75139e-05
1.8367e-05
-9.9632e-10
1.83657e-05
-6.69652e-09
1.83623e-05
1.28651e-09
1.83592e-05
-6.67196e-09
1.83575e-05
2.82757e-09
1.83536e-05
8.38775e-09
1.83483e-05
1.35087e-08
1.83455e-05
2.04724e-08
1.83462e-05
3.28862e-08
1.83474e-05
3.88263e-08
1.83474e-05
4.08648e-08
1.83471e-05
4.08242e-08
1.83471e-05
4.18931e-08
1.83471e-05
4.13108e-08
1.83468e-05
3.93312e-08
1.83471e-05
3.83337e-08
1.83481e-05