/*--------------------------------*- C++ -*----------------------------------*\
| =========                 |                                                 |
| \\      /  F ield         | OpenFOAM: The Open Source CFD Toolbox           |
|  \\    /   O peration     | Version:  2506                                  |
|   \\  /    A nd           | Website:  www.openfoam.com                      |
|    \\/     M anipulation  |                                                 |
\*---------------------------------------------------------------------------*/
FoamFile
{
    version     2.0;
    format      ascii;
    arch        "LSB;label=32;scalar=64";
    class       volScalarField;
    location    "3.85";
    object      p;
}
// * * * * * * * * * * * * * * * * * * * * * * * * * * * * * * * * * * * * * //

dimensions      [0 2 -2 0 0 0 0];

internalField   nonuniform List<scalar> 
9600
(
4.40649e-10
-0.000774035
0.000546435
-0.000338096
0.000669808
-0.000131978
0.00242357
0.00266303
0.00241894
0.00174039
0.00230289
0.00249776
0.00258643
0.00408572
0.00563137
0.00747359
0.010699
0.013486
0.0206967
0.0261888
-4.85153e-07
-0.000774883
0.000547252
-0.000339802
0.000665974
-0.000131525
0.00243907
0.00264797
0.00242763
0.00172421
0.00229997
0.00250576
0.00256295
0.00409789
0.00562617
0.00746367
0.0107088
0.0134349
0.0207743
0.0257235
-1.89831e-06
-0.000776005
0.000548605
-0.000341966
0.000660773
-0.000129061
0.00245205
0.00262532
0.00244389
0.00170045
0.00230045
0.00252085
0.00252971
0.00412205
0.00561315
0.00745831
0.0107031
0.013383
0.0207714
0.0250559
-4.19798e-06
-0.000777625
0.000550563
-0.000343376
0.000654618
-0.000125164
0.00246019
0.00259022
0.00245415
0.00167485
0.00230045
0.00254381
0.00248943
0.00414709
0.00560335
0.00744888
0.0106933
0.0133345
0.0206727
0.0244574
-7.40971e-06
-0.000780021
0.000553412
-0.000344052
0.00064756
-0.000119434
0.00246502
0.00254042
0.00245848
0.00164672
0.0022993
0.00257202
0.00244775
0.00417366
0.0056014
0.00743615
0.0106855
0.0132733
0.0205343
0.023888
-1.14424e-05
-0.000783198
0.00055712
-0.000344068
0.00064033
-0.000111469
0.00246592
0.00247706
0.00246273
0.00161786
0.00229881
0.00260574
0.00241053
0.00420231
0.00560823
0.00742167
0.010673
0.0132079
0.0203551
0.0233407
-1.60952e-05
-0.000786988
0.000561455
-0.000343474
0.000633474
-0.000101484
0.00246182
0.00240394
0.00247138
0.00158959
0.00229911
0.00264535
0.00237943
0.00423214
0.00562274
0.00740436
0.0106548
0.0131394
0.0201313
0.0228076
-2.11837e-05
-0.000791167
0.000566155
-0.000342409
0.000627207
-8.99986e-05
0.00245222
0.00232516
0.00248657
0.00156233
0.00229932
0.00268984
0.00235416
0.00426182
0.00564262
0.00738496
0.0106294
0.0130672
0.0198613
0.0222844
-2.66079e-05
-0.000795538
0.000571012
-0.000341021
0.000621568
-7.75404e-05
0.00243714
0.00224398
0.00250896
0.00153639
0.00229867
0.00273783
0.00233412
0.00428967
0.0056658
0.00736476
0.0105944
0.0129886
0.0195483
0.0217661
-3.2343e-05
-0.00079997
0.000575901
-0.000339388
0.000616472
-6.44976e-05
0.00241705
0.00216274
0.00253758
0.00151196
0.00229648
0.00278826
0.00231839
0.00431485
0.00569067
0.00734421
0.0105469
0.0129015
0.0191973
0.0212464
-3.83959e-05
-0.000804387
0.000580759
-0.000337519
0.00061171
-5.11277e-05
0.00239295
0.00208284
0.00257009
0.00148916
0.00229217
0.00284043
0.00230588
0.00433797
0.00571543
0.00732278
0.0104858
0.0128046
0.0188124
0.0207195
-4.47719e-05
-0.000808741
0.000585515
-0.000335396
0.000607019
-3.75902e-05
0.00236599
0.00200485
0.00260365
0.00146823
0.00228504
0.00289385
0.00229565
0.00435871
0.0057381
0.00729999
0.0104107
0.0126947
0.0183979
0.020181
-5.14639e-05
-0.000812999
0.000590063
-0.000333
0.000602148
-2.39288e-05
0.00233718
0.0019287
0.00263575
0.00144963
0.00227409
0.00294815
0.00228689
0.0043767
0.00575729
0.00727502
0.0103221
0.012567
0.017959
0.0196302
-5.84607e-05
-0.00081714
0.000594277
-0.000330305
0.000596885
-1.01259e-05
0.00230705
0.00185406
0.0026645
0.00143397
0.00225815
0.00300311
0.00227888
0.00439185
0.00577208
0.00724608
0.0102209
0.012417
0.0174997
0.0190687
-6.5759e-05
-0.000821155
0.000598038
-0.000327292
0.000591061
3.83653e-06
0.00227584
0.0017807
0.00268855
0.00142187
0.00223629
0.00305843
0.00227118
0.00440335
0.0057818
0.00721041
0.0101095
0.0122421
0.0170203
0.0184991
-7.33663e-05
-0.000825054
0.000601241
-0.000323933
0.000584526
1.79682e-05
0.00224344
0.00170856
0.00270691
0.001414
0.00220771
0.00311384
0.00226341
0.00441076
0.00578665
0.00716456
0.00999059
0.0120415
0.01652
0.0179243
-8.12954e-05
-0.000828867
0.000603795
-0.000320187
0.000577132
3.22719e-05
0.00220957
0.00163776
0.00271874
0.00141101
0.00217187
0.00316893
0.00225521
0.0044137
0.0057881
0.00710464
0.00986551
0.0118164
0.0159976
0.0173476
-8.95575e-05
-0.000832636
0.000605619
-0.000316013
0.000568713
4.67607e-05
0.00217383
0.00156849
0.00272329
0.00141348
0.00212839
0.00322324
0.00224687
0.00441098
0.00578801
0.00702681
0.0097334
0.0115707
0.0154509
0.0167707
-9.81617e-05
-0.000836407
0.000606645
-0.000311373
0.00055909
6.14777e-05
0.00213579
0.00150098
0.00271981
0.00142184
0.00207699
0.00327614
0.00223941
0.00440002
0.00578851
0.00692866
0.00959106
0.0113104
0.0148773
0.0161927
-0.000107112
-0.000840244
0.000606809
-0.000306233
0.000548073
7.64989e-05
0.00209497
0.00143554
0.00270759
0.00143628
0.00201764
0.00332665
0.00223423
0.00437763
0.00579199
0.00681
0.00943301
0.0110429
0.0142764
0.0156092
-0.000116393
-0.00084422
0.000606032
-0.000300528
0.000535457
9.19227e-05
0.00205081
0.00137252
0.00268591
0.00145686
0.00195052
0.00337368
0.00223291
0.00434062
0.00579922
0.00667227
0.00925287
0.010775
0.0136516
0.0150129
-0.000125971
-0.000848411
0.000604213
-0.000294186
0.000521007
0.000107888
0.00200278
0.00131223
0.00265414
0.00148339
0.00187624
0.00341542
0.00223738
0.0042862
0.00580898
0.00651894
0.00904373
0.0105105
0.0130099
0.0143946
-0.000135799
-0.000852909
0.00060124
-0.000287142
0.000504471
0.000124536
0.00195042
0.00125491
0.00261184
0.00151523
0.0017961
0.00344943
0.00225008
0.00421199
0.0058185
0.00635514
0.00879865
0.01025
0.0123619
0.0137453
-0.000145819
-0.000857802
0.000596973
-0.00027931
0.000485606
0.000142009
0.00189313
0.00120071
0.0025588
0.00155155
0.00171197
0.00347293
0.0022726
0.0041122
0.00582355
0.00618695
0.00851287
0.00999046
0.0117209
0.013058
-0.000155958
-0.000863187
0.00059126
-0.000270561
0.000464083
0.000160484
0.00183051
0.00114971
0.00249477
0.00159107
0.0016262
0.00348276
0.0023056
0.00399388
0.00581875
0.00602063
0.00818529
0.00972416
0.0111004
0.0123332
-0.000166141
-0.000869169
0.00058396
-0.000260757
0.000439498
0.000180081
0.00176235
0.00110171
0.00241998
0.00163207
0.00154145
0.00347647
0.00234869
0.003859
0.00579755
0.00586127
0.00781804
0.00944072
0.0105126
0.0115778
-0.000176286
-0.000875842
0.000574865
-0.000249719
0.000411478
0.000200856
0.00168847
0.00105623
0.00233538
0.00167237
0.00146032
0.00345198
0.00240014
0.00370987
0.00575294
0.00571282
0.00741579
0.0091286
0.00996693
0.010803
-0.000186312
-0.000883274
0.000563679
-0.000237238
0.000379747
0.000222702
0.00160893
0.00101256
0.0022423
0.0017094
0.0013851
0.00340736
0.00245751
0.00355059
0.00567884
0.00557725
0.00698612
0.00877553
0.00946538
0.0100261
-0.000196136
-0.00089153
0.00055009
-0.000223095
0.000343992
0.000245396
0.00152416
0.000969614
0.00214255
0.00174034
0.00131721
0.00334228
0.00251703
0.00338518
0.00557091
0.00545346
0.00653935
0.00837199
0.00900199
0.00926975
-0.000205672
-0.000900626
0.000533747
-0.000207086
0.000303891
0.000268657
0.00143483
0.000925859
0.0020384
0.00176269
0.00125711
0.0032576
0.00257413
0.00321615
0.00542615
0.00533822
0.00608801
0.00791294
0.00856377
0.00855776
-0.000214868
-0.000910513
0.000514223
-0.000189085
0.000259323
0.000291922
0.00134204
0.000879432
0.00193219
0.00177496
0.0012039
0.00315477
0.00262492
0.0030454
0.00524216
0.00522632
0.00564528
0.00739851
0.00813193
0.00790869
-0.000223694
-0.000921144
0.000491098
-0.000168948
0.000210234
0.000314301
0.00124741
0.000828179
0.00182575
0.00177611
0.00115583
0.00303599
0.00266604
0.00287484
0.00501824
0.00511005
0.0052221
0.00683691
0.00768581
0.00732759
-0.000232117
-0.000932472
0.000463941
-0.000146489
0.000156408
0.000334588
0.0011526
0.000770171
0.00172021
0.00176567
0.00111039
0.00290283
0.00269441
0.00270646
0.00475552
0.00498089
0.00482713
0.00624272
0.00720476
0.00680483
-0.000240108
-0.000944376
0.000432271
-0.00012173
9.87193e-05
0.000351445
0.00105941
0.000703943
0.00161563
0.00174458
0.00106488
0.00275546
0.00270811
0.00254243
0.00445579
0.00483048
0.00446607
0.00563129
0.00667485
0.006323
-0.000247717
-0.000956715
0.000395711
-9.48061e-05
3.78367e-05
0.00036321
0.00096997
0.000628411
0.00151115
0.00171441
0.001017
0.002594
0.0027048
0.00238483
0.0041226
0.00465017
0.00413878
0.00501799
0.00609528
0.00585798
-0.000255025
-0.000969399
0.000353912
-6.58366e-05
-2.55598e-05
0.000367853
0.000885877
0.000543539
0.00140539
0.00167669
0.000964825
0.00241762
0.00268171
0.00223598
0.0037622
0.00443138
0.00383998
0.00441912
0.00547493
0.00538242
-0.000262075
-0.000982331
0.000306512
-3.49829e-05
-9.052e-05
0.000363544
0.000808147
0.000449947
0.00129537
0.00163291
0.00090817
0.00222443
0.00263517
0.00209871
0.0033822
0.00416649
0.0035612
0.00384902
0.0048261
0.00487717
-0.000268911
-0.000995409
0.00025318
-2.39185e-06
-0.000156115
0.000348218
0.000737715
0.000348953
0.00117702
0.00158316
0.000848225
0.00201364
0.00256072
0.00197531
0.00299149
0.00385146
0.00329251
0.00331647
0.00416279
0.00433495
-0.000275703
-0.00100842
0.000193534
3.152e-05
-0.000220836
0.000319535
0.000674529
0.000243268
0.00104652
0.00152582
0.000787616
0.00178668
0.00245289
0.00186483
0.0026007
0.00348706
0.00302289
0.00282479
0.00349943
0.00375807
-0.000282785
-0.00102087
0.000126968
6.578e-05
-0.00028208
0.000275577
0.000617251
0.00013662
0.000901053
0.00145788
0.000729329
0.00154709
0.00230663
0.00176113
0.00222142
0.00307755
0.00273788
0.00237328
0.00285064
0.0031539
-0.000290646
-0.00103208
5.29437e-05
9.90307e-05
-0.000337049
0.000214669
0.000563672
3.35881e-05
0.000739407
0.00137412
0.000674466
0.00130028
0.00212084
0.0016595
0.00186271
0.00263251
0.00242274
0.00195611
0.00222891
0.00253233
-0.000299691
-0.00104138
-2.89711e-05
0.000129353
-0.000382711
0.000136269
0.00050961
-6.2058e-05
0.000562128
0.00126836
0.000622713
0.00105422
0.00189712
0.00154372
0.00152807
0.00216323
0.00206778
0.00156265
0.00164252
0.00190566
-0.000310482
-0.00104798
-0.00011873
0.000153497
-0.000415172
4.17324e-05
0.000448516
-0.000148789
0.000370687
0.00113558
0.000572323
0.000817293
0.00163857
0.00140354
0.00121769
0.00168272
0.0016703
0.00117935
0.00109491
0.0012853
-0.000323852
-0.00105099
-0.000216119
0.000167905
-0.000432466
-6.53191e-05
0.000372183
-0.000227141
0.000169703
0.000974513
0.000518124
0.000593742
0.00135125
0.0012331
0.000927654
0.00120432
0.0012339
0.000792501
0.000584139
0.000680876
-0.000340349
-0.00104998
-0.000320018
0.000169289
-0.000435588
-0.000183497
0.000276518
-0.000296753
-2.61838e-05
0.000787015
0.000449329
0.000383741
0.00104308
0.00102732
0.000650917
0.000738461
0.000766565
0.000389866
0.000104147
0.00010036
-0.000360769
-0.00104496
-0.000430467
0.000151729
-0.000426621
-0.000301644
0.000160877
-0.000361969
-0.000214112
0.000575033
0.000356782
0.000185236
0.000722846
0.000785056
0.000379928
0.000292792
0.000278587
-3.67894e-05
-0.000355141
-0.000449182
-0.000385814
-0.00103595
-0.000537252
0.00011153
-0.000406027
-0.000412567
2.37885e-05
-0.000431993
-0.000392077
0.000345358
0.000237702
-5.89403e-06
0.000396998
0.000508329
0.000108589
-0.000130481
-0.000218417
-0.000489117
-0.000805549
-0.000965011
-0.000415849
-0.00102331
-0.000641257
4.71951e-05
-0.000383635
-0.000512347
-0.000132008
-0.000514341
-0.000558873
0.000106261
9.08488e-05
-0.000195656
6.96717e-05
0.000200931
-0.000171827
-0.000532997
-0.000712271
-0.000960911
-0.00125927
-0.00145027
-0.0004512
-0.00100801
-0.000738329
-4.24907e-05
-0.000362117
-0.000598183
-0.000297768
-0.000613712
-0.000716897
-0.000137448
-8.32764e-05
-0.000388591
-0.000255205
-0.000132527
-0.000471615
-0.000919069
-0.00119573
-0.0014432
-0.00172626
-0.00191926
-0.00049179
-0.000991453
-0.000825687
-0.000156939
-0.000371187
-0.000669568
-0.000466799
-0.000731259
-0.000872305
-0.000382744
-0.000280657
-0.00058795
-0.000576104
-0.000487437
-0.00079107
-0.00128951
-0.00166635
-0.00196754
-0.00221009
-0.00238871
-0.00053693
-0.00097574
-0.000902107
-0.000292851
-0.000405385
-0.000729218
-0.00063002
-0.000865703
-0.00103129
-0.000628779
-0.000497789
-0.000796685
-0.000892451
-0.000857741
-0.00113189
-0.00165414
-0.00211574
-0.00244674
-0.00269634
-0.00286239
-0.000585891
-0.000963028
-0.000967366
-0.000445202
-0.000470116
-0.00078266
-0.000781066
-0.00101346
-0.00119806
-0.000876395
-0.000732455
-0.00101581
-0.00120286
-0.00123732
-0.00149431
-0.0020191
-0.00254388
-0.00292002
-0.00318058
-0.00333988
-0.000638185
-0.000956174
-0.00102195
-0.000605202
-0.000567823
-0.000840502
-0.00091886
-0.00116744
-0.00137402
-0.00112759
-0.000982915
-0.0012462
-0.00150694
-0.00162068
-0.00187637
-0.00238908
-0.00295525
-0.00338261
-0.00365962
-0.00381569
-0.000693283
-0.00096035
-0.00106707
-0.000762538
-0.000697086
-0.000914911
-0.00104452
-0.00132089
-0.00155844
-0.00138482
-0.00124834
-0.0014895
-0.00180585
-0.00200087
-0.00227254
-0.00276896
-0.00335556
-0.00383041
-0.00413111
-0.00428571
-0.000750808
-0.000975675
-0.00110783
-0.0009115
-0.000851955
-0.00101415
-0.00116374
-0.00146987
-0.00174735
-0.00164819
-0.00152894
-0.00174716
-0.00210148
-0.00237289
-0.00267597
-0.00316027
-0.00375084
-0.00426204
-0.00459289
-0.00474973
-0.000810591
-0.00100297
-0.00114959
-0.00104878
-0.00102249
-0.00114201
-0.00128687
-0.00161319
-0.0019354
-0.0019158
-0.0018246
-0.00202071
-0.00239588
-0.00273491
-0.00307983
-0.00356065
-0.00414589
-0.00467927
-0.00504159
-0.00520694
-0.00087262
-0.00104428
-0.00119802
-0.00117424
-0.00119796
-0.00129817
-0.00142444
-0.00175292
-0.00211896
-0.00218347
-0.00213313
-0.00231224
-0.00269272
-0.0030865
-0.00347816
-0.00396502
-0.00454313
-0.00508647
-0.0054747
-0.00565455
-0.000937327
-0.00109855
-0.0012564
-0.00129151
-0.00137089
-0.00147683
-0.00158301
-0.00189568
-0.00229616
-0.00244587
-0.00245002
-0.00262203
-0.00299715
-0.00342861
-0.00386652
-0.00436765
-0.00494101
-0.00548783
-0.00589349
-0.00609023
-0.00100544
-0.00115647
-0.00132495
-0.00140547
-0.00153724
-0.00166901
-0.00176473
-0.00204991
-0.0024681
-0.00269897
-0.00276893
-0.00294686
-0.00331347
-0.00376571
-0.00424236
-0.00476325
-0.00533578
-0.00588437
-0.00630075
-0.00651256
-0.00107758
-0.0012224
-0.00140448
-0.00152103
-0.00169611
-0.00186581
-0.00196864
-0.0022224
-0.00263955
-0.00294043
-0.0030836
-0.00328152
-0.00364188
-0.0041035
-0.00460668
-0.00514795
-0.00572341
-0.00627384
-0.00669813
-0.00692096
-0.00115456
-0.00129583
-0.00149391
-0.00164185
-0.00184967
-0.00206096
-0.00218861
-0.0024164
-0.00281731
-0.00317044
-0.0033882
-0.00361974
-0.00397937
-0.00444427
-0.0049635
-0.00552068
-0.0061008
-0.00665338
-0.00708584
-0.00731656
-0.0012372
-0.00137643
-0.00159148
-0.00177003
-0.00200232
-0.00225181
-0.00241587
-0.00263117
-0.00300801
-0.00339297
-0.00367888
-0.00395396
-0.00432209
-0.00478753
-0.00531543
-0.00588292
-0.00646658
-0.00702067
-0.00746148
-0.00769981
-0.00132606
-0.00146416
-0.00169593
-0.00190577
-0.00215851
-0.00243831
-0.00264379
-0.00286273
-0.00321482
-0.00361406
-0.00395567
-0.00427707
-0.00466403
-0.00513209
-0.00566264
-0.00623593
-0.006821
-0.00737416
-0.00782191
-0.00806985
-0.00142136
-0.00155932
-0.00180663
-0.00204827
-0.00232058
-0.00262265
-0.00286856
-0.00310411
-0.00343749
-0.00383826
-0.00422113
-0.00458589
-0.00499702
-0.00547414
-0.00600489
-0.00657918
-0.0071647
-0.00771463
-0.0081658
-0.00842437
-0.00152329
-0.00166232
-0.00192337
-0.00219584
-0.00248903
-0.00280827
-0.00308933
-0.00334854
-0.00367356
-0.00406872
-0.0044778
-0.00488016
-0.00531566
-0.00580607
-0.00634019
-0.00691185
-0.00749617
-0.00804242
-0.00849301
-0.00876061
-0.00163196
-0.0017733
-0.00204637
-0.00234735
-0.00266323
-0.00299727
-0.00330658
-0.00359152
-0.00391769
-0.00430654
-0.0047283
-0.00515951
-0.00561825
-0.00612116
-0.00666259
-0.00723231
-0.00781289
-0.00835599
-0.00880377
-0.00907735
-0.00174739
-0.00189206
-0.00217581
-0.00250251
-0.00284226
-0.00319059
-0.00352174
-0.00383103
-0.00416361
-0.00454875
-0.00497552
-0.00542397
-0.00590237
-0.00641626
-0.00696523
-0.00753633
-0.00811163
-0.00865173
-0.00909673
-0.00937332
-0.00186938
-0.00201812
-0.00231208
-0.00266123
-0.00302469
-0.00338796
-0.00373668
-0.00406697
-0.00440778
-0.00479081
-0.00521929
-0.00567506
-0.00616502
-0.00668844
-0.00724197
-0.00781618
-0.00838849
-0.00892566
-0.00937018
-0.00964853
-0.00199788
-0.00215131
-0.00245525
-0.00282392
-0.00320939
-0.00358799
-0.00395181
-0.00429929
-0.00464892
-0.00502918
-0.0054557
-0.00591296
-0.00640481
-0.00693394
-0.00748875
-0.00806031
-0.00863083
-0.00916692
-0.00961493
-0.00989831
-0.0021329
-0.00229124
-0.00260457
-0.00299067
-0.00339633
-0.00379035
-0.0041673
-0.0045282
-0.00488598
-0.00526319
-0.00568126
-0.00613283
-0.00661786
-0.00714591
-0.00770513
-0.00827269
-0.00883399
-0.00936383
-0.00981479
-0.0101043
-0.00227362
-0.00243607
-0.00275999
-0.00316094
-0.00358448
-0.00399481
-0.00438347
-0.00475425
-0.00511789
-0.00549367
-0.00589951
-0.00633252
-0.0068005
-0.00730981
-0.00785963
-0.00843251
-0.00900322
-0.00953669
-0.00999816
-0.0103058
-0.00242078
-0.00258722
-0.00291985
-0.00333405
-0.00377328
-0.00419944
-0.00459977
-0.00497773
-0.00534287
-0.00571448
-0.00611337
-0.00652584
-0.00696033
-0.00742913
-0.00793323
-0.0084647
-0.00901259
-0.00954977
-0.0100289
-0.0103739
-0.00257378
-0.00274434
-0.00308238
-0.00350858
-0.00396439
-0.00440486
-0.00481682
-0.00520306
-0.00556603
-0.00592247
-0.00630488
-0.00670267
-0.00711771
-0.00756312
-0.00803452
-0.00853187
-0.00903627
-0.00952935
-0.00998464
-0.0103294
-0.00272904
-0.00290358
-0.00324946
-0.00368556
-0.00415517
-0.00460906
-0.00503359
-0.0054357
-0.00580951
-0.00614575
-0.00647014
-0.00677456
-0.00707104
-0.00740299
-0.00779101
-0.00826014
-0.00880059
-0.00937975
-0.00994219
-0.0104147
-0.00288884
-0.00306641
-0.00342017
-0.00386319
-0.0043357
-0.00479654
-0.00523852
-0.00566605
-0.00608241
-0.0064999
-0.00691769
-0.00725503
-0.0074419
-0.00754202
-0.00764485
-0.00778706
-0.00799042
-0.00822507
-0.00844224
-0.00867279
-0.00305601
-0.00323758
-0.00359325
-0.00403752
-0.00450532
-0.00496279
-0.00541266
-0.00584855
-0.00623767
-0.00652062
-0.00669208
-0.00679272
-0.00697041
-0.00724566
-0.00760598
-0.00798955
-0.00833302
-0.00862473
-0.00890127
-0.00922131
-0.00323065
-0.0034057
-0.00376817
-0.00421797
-0.00469772
-0.00516459
-0.00556361
-0.00586623
-0.00611633
-0.00637611
-0.00671523
-0.0071166
-0.00746383
-0.00774865
-0.00795173
-0.00807807
-0.00813841
-0.00818603
-0.0082747
-0.00848428
-0.00343252
-0.00358094
-0.00387978
-0.00425186
-0.00464812
-0.00504253
-0.00541329
-0.00575819
-0.00609443
-0.00640586
-0.00671319
-0.00702111
-0.00729723
-0.00762619
-0.00801556
-0.00848821
-0.00904874
-0.00967162
-0.0103094
-0.0108754
-0.0036612
-0.00382526
-0.00402855
-0.00428981
-0.00463169
-0.00503689
-0.00546219
-0.00586956
-0.00625205
-0.00657939
-0.00686495
-0.00718809
-0.00750786
-0.00777129
-0.00798763
-0.00814944
-0.00827837
-0.00838916
-0.00853218
-0.00878179
-0.00381107
-0.00395802
-0.00412095
-0.00433486
-0.00463494
-0.00500712
-0.00540453
-0.00576289
-0.00609026
-0.0064234
-0.00676596
-0.00711031
-0.00742336
-0.00767499
-0.00791233
-0.0081564
-0.00841839
-0.00870281
-0.00902671
-0.0094543
0.0411709
0.0268744
0.0122175
0.00255195
-0.00149063
-0.00252745
-0.00347545
-0.00492388
-0.0062551
-0.00700997
-0.00738952
-0.00780172
-0.00842254
-0.00930117
-0.0103607
-0.0113224
-0.0120561
-0.0127561
-0.0135689
-0.0144335
-0.0152651
-0.0160357
-0.0167926
-0.0176193
-0.0185303
-0.0194724
-0.0203866
-0.02124
-0.0220611
-0.022907
-0.0237786
-0.0246252
-0.0254295
-0.0262426
-0.0271036
-0.0279812
-0.0288426
-0.0297172
-0.0306353
-0.0315655
-0.0324772
-0.0333975
-0.0343456
-0.0352896
-0.0362101
-0.0371564
-0.0381463
-0.0391504
-0.0401722
-0.041236
-0.0423225
-0.0433904
-0.0444508
-0.0455387
-0.046629
-0.0477377
-0.0489146
-0.05012
-0.0513215
-0.052547
-0.0537932
-0.0550362
-0.0562959
-0.0575916
-0.0589205
-0.0602699
-0.0616499
-0.063057
-0.0644903
-0.0659467
-0.0674261
-0.0689217
-0.0704453
-0.0719977
-0.073582
-0.0751935
-0.07684
-0.0785123
-0.0802155
-0.0819408
-0.0837006
-0.085488
-0.0873155
-0.0891688
-0.0910555
-0.0929727
-0.094921
-0.0969108
-0.0989229
-0.100984
-0.10306
-0.105191
-0.10734
-0.109547
-0.11177
-0.11403
-0.116353
-0.118597
-0.120894
-0.123154
0.0388214
0.0266196
0.0122862
0.00269431
-0.00139249
-0.00247857
-0.00344828
-0.00490849
-0.00624587
-0.00700339
-0.0073837
-0.00779596
-0.00841659
-0.00929534
-0.0103557
-0.0113183
-0.0120523
-0.0127523
-0.0135654
-0.0144303
-0.0152622
-0.0160331
-0.01679
-0.0176169
-0.0185281
-0.0194703
-0.0203848
-0.0212383
-0.0220595
-0.0229055
-0.0237773
-0.024624
-0.0254284
-0.0262415
-0.0271026
-0.0279803
-0.0288418
-0.0297164
-0.0306346
-0.0315648
-0.0324766
-0.0333968
-0.034345
-0.0352891
-0.0362096
-0.0371559
-0.0381458
-0.0391499
-0.0401717
-0.0412355
-0.0423221
-0.0433901
-0.0444504
-0.0455384
-0.0466286
-0.0477374
-0.0489143
-0.0501197
-0.0513212
-0.0525467
-0.0537929
-0.0550359
-0.0562956
-0.0575913
-0.0589202
-0.0602696
-0.0616496
-0.0630567
-0.06449
-0.0659465
-0.0674259
-0.0689215
-0.0704451
-0.0719975
-0.0735818
-0.0751934
-0.0768399
-0.0785122
-0.0802153
-0.0819406
-0.0837005
-0.0854879
-0.0873154
-0.0891687
-0.0910554
-0.0929726
-0.0949209
-0.0969107
-0.0989228
-0.100984
-0.10306
-0.105191
-0.10734
-0.109546
-0.11177
-0.11403
-0.116353
-0.118597
-0.120894
-0.123154
0.0371866
0.0264727
0.0124601
0.0029498
-0.00123846
-0.00242054
-0.00341653
-0.00488385
-0.00622799
-0.00699104
-0.00737541
-0.00779049
-0.00841224
-0.00929083
-0.0103512
-0.0113142
-0.0120487
-0.0127492
-0.0135625
-0.0144274
-0.0152595
-0.0160306
-0.0167877
-0.0176147
-0.0185261
-0.0194686
-0.0203832
-0.0212369
-0.0220581
-0.0229042
-0.0237761
-0.0246229
-0.0254274
-0.0262405
-0.0271017
-0.0279795
-0.028841
-0.0297156
-0.0306339
-0.0315642
-0.032476
-0.0333963
-0.0343445
-0.0352886
-0.0362092
-0.0371554
-0.0381453
-0.0391495
-0.0401713
-0.0412351
-0.0423218
-0.0433897
-0.0444501
-0.0455381
-0.0466283
-0.047737
-0.048914
-0.0501194
-0.0513209
-0.0525464
-0.0537927
-0.0550357
-0.0562954
-0.0575911
-0.05892
-0.0602694
-0.0616494
-0.0630566
-0.0644899
-0.0659463
-0.0674258
-0.0689213
-0.0704449
-0.0719974
-0.0735817
-0.0751932
-0.0768397
-0.078512
-0.0802152
-0.0819405
-0.0837004
-0.0854878
-0.0873152
-0.0891686
-0.0910553
-0.0929725
-0.0949208
-0.0969106
-0.0989227
-0.100984
-0.10306
-0.105191
-0.10734
-0.109546
-0.11177
-0.11403
-0.116353
-0.118597
-0.120894
-0.123155
0.0355908
0.0262366
0.0126382
0.00324564
-0.00104124
-0.00234176
-0.00336803
-0.00484041
-0.00619242
-0.00696569
-0.00736033
-0.00778359
-0.00840938
-0.00928766
-0.0103459
-0.0113083
-0.0120441
-0.0127464
-0.0135603
-0.0144247
-0.0152563
-0.0160275
-0.0167851
-0.0176125
-0.018524
-0.0194665
-0.0203814
-0.0212353
-0.0220566
-0.0229028
-0.0237747
-0.0246216
-0.0254262
-0.0262394
-0.0271007
-0.0279786
-0.0288401
-0.0297148
-0.0306332
-0.0315636
-0.0324754
-0.0333957
-0.034344
-0.0352882
-0.0362087
-0.0371549
-0.0381449
-0.0391491
-0.0401709
-0.0412347
-0.0423214
-0.0433894
-0.0444497
-0.0455377
-0.046628
-0.0477367
-0.0489137
-0.0501192
-0.0513207
-0.0525461
-0.0537924
-0.0550355
-0.0562951
-0.0575909
-0.0589198
-0.0602692
-0.0616492
-0.0630564
-0.0644897
-0.0659461
-0.0674256
-0.0689212
-0.0704448
-0.0719972
-0.0735815
-0.0751931
-0.0768396
-0.0785119
-0.0802151
-0.0819404
-0.0837003
-0.0854877
-0.0873151
-0.0891685
-0.0910552
-0.0929724
-0.0949207
-0.0969105
-0.0989226
-0.100984
-0.103059
-0.105191
-0.10734
-0.109546
-0.11177
-0.11403
-0.116353
-0.118597
-0.120894
-0.123155
0.0339822
0.0258975
0.0128058
0.00355343
-0.000826752
-0.00225366
-0.00331103
-0.00478198
-0.00613882
-0.00692524
-0.00733608
-0.00777353
-0.00840759
-0.00928611
-0.0103397
-0.0112992
-0.0120373
-0.0127435
-0.013559
-0.0144223
-0.0152525
-0.0160236
-0.0167821
-0.0176101
-0.0185215
-0.0194637
-0.0203787
-0.0212331
-0.0220549
-0.0229011
-0.0237728
-0.0246198
-0.0254246
-0.026238
-0.0270993
-0.0279773
-0.028839
-0.0297138
-0.0306323
-0.0315628
-0.0324747
-0.033395
-0.0343434
-0.0352876
-0.0362081
-0.0371543
-0.0381444
-0.0391486
-0.0401704
-0.0412343
-0.0423211
-0.0433891
-0.0444494
-0.0455374
-0.0466277
-0.0477363
-0.0489133
-0.0501189
-0.0513204
-0.0525459
-0.0537922
-0.0550352
-0.0562949
-0.0575906
-0.0589195
-0.060269
-0.061649
-0.0630561
-0.0644895
-0.0659459
-0.0674254
-0.068921
-0.0704446
-0.071997
-0.0735814
-0.0751929
-0.0768394
-0.0785118
-0.0802149
-0.0819403
-0.0837001
-0.0854875
-0.087315
-0.0891684
-0.0910551
-0.0929723
-0.0949206
-0.0969104
-0.0989225
-0.100984
-0.103059
-0.105191
-0.10734
-0.109546
-0.11177
-0.11403
-0.116353
-0.118597
-0.120894
-0.123156
0.0323827
0.0254823
0.0129684
0.00386584
-0.000603852
-0.00216272
-0.0032545
-0.0047186
-0.00607509
-0.00687417
-0.00730434
-0.00776041
-0.00840639
-0.00928594
-0.0103326
-0.0112873
-0.012028
-0.01274
-0.0135582
-0.0144202
-0.0152483
-0.0160192
-0.016779
-0.0176079
-0.0185189
-0.0194601
-0.0203748
-0.0212302
-0.0220528
-0.022899
-0.0237703
-0.0246174
-0.0254227
-0.0262363
-0.0270976
-0.0279755
-0.0288374
-0.0297125
-0.0306311
-0.0315617
-0.0324737
-0.0333942
-0.0343426
-0.0352869
-0.0362075
-0.0371537
-0.0381438
-0.039148
-0.0401699
-0.0412338
-0.0423206
-0.0433887
-0.044449
-0.045537
-0.0466272
-0.0477359
-0.0489129
-0.0501185
-0.0513201
-0.0525456
-0.0537919
-0.0550349
-0.0562946
-0.0575903
-0.0589193
-0.0602687
-0.0616487
-0.0630559
-0.0644892
-0.0659457
-0.0674252
-0.0689208
-0.0704444
-0.0719969
-0.0735812
-0.0751928
-0.0768393
-0.0785116
-0.0802148
-0.0819401
-0.0837
-0.0854874
-0.0873149
-0.0891682
-0.091055
-0.0929721
-0.0949205
-0.0969103
-0.0989224
-0.100984
-0.103059
-0.105191
-0.10734
-0.109546
-0.11177
-0.114029
-0.116353
-0.118597
-0.120894
-0.123157
0.0308136
0.0250034
0.0131185
0.00417544
-0.000375456
-0.00206929
-0.00320042
-0.00465479
-0.00600643
-0.0068166
-0.00726747
-0.00774483
-0.00840515
-0.00928649
-0.0103251
-0.0112735
-0.0120169
-0.0127356
-0.0135572
-0.014418
-0.0152439
-0.0160147
-0.0167764
-0.0176064
-0.0185163
-0.0194557
-0.0203697
-0.0212262
-0.0220502
-0.0228964
-0.0237669
-0.024614
-0.0254202
-0.0262345
-0.0270954
-0.027973
-0.0288352
-0.0297107
-0.0306294
-0.0315601
-0.0324724
-0.0333931
-0.0343416
-0.035286
-0.0362066
-0.0371529
-0.038143
-0.0391473
-0.0401692
-0.0412332
-0.0423201
-0.0433882
-0.0444485
-0.0455365
-0.0466267
-0.0477354
-0.0489125
-0.0501182
-0.0513197
-0.0525452
-0.0537916
-0.0550346
-0.0562943
-0.05759
-0.058919
-0.0602684
-0.0616485
-0.0630556
-0.064489
-0.0659455
-0.067425
-0.0689205
-0.0704442
-0.0719966
-0.073581
-0.0751926
-0.0768391
-0.0785114
-0.0802146
-0.08194
-0.0836998
-0.0854872
-0.0873147
-0.0891681
-0.0910549
-0.092972
-0.0949204
-0.0969102
-0.0989223
-0.100984
-0.103059
-0.105191
-0.10734
-0.109546
-0.11177
-0.114029
-0.116353
-0.118597
-0.120894
-0.123158
0.0293047
0.024461
0.0132431
0.00447604
-0.000141424
-0.0019705
-0.00314755
-0.00459142
-0.00593463
-0.00675439
-0.00722669
-0.00772706
-0.00840335
-0.00928725
-0.0103174
-0.0112589
-0.0120049
-0.0127305
-0.0135556
-0.0144153
-0.015239
-0.0160104
-0.0167744
-0.0176058
-0.0185143
-0.0194509
-0.0203638
-0.0212214
-0.022047
-0.0228931
-0.0237625
-0.0246095
-0.0254172
-0.0262323
-0.0270929
-0.0279701
-0.0288326
-0.0297085
-0.0306272
-0.0315579
-0.0324707
-0.0333917
-0.0343403
-0.0352848
-0.0362056
-0.0371519
-0.038142
-0.0391463
-0.0401684
-0.0412325
-0.0423195
-0.0433877
-0.044448
-0.0455359
-0.0466261
-0.0477348
-0.048912
-0.0501177
-0.0513193
-0.0525449
-0.0537912
-0.0550342
-0.0562939
-0.0575896
-0.0589186
-0.0602681
-0.0616481
-0.0630553
-0.0644887
-0.0659452
-0.0674247
-0.0689203
-0.0704439
-0.0719964
-0.0735807
-0.0751923
-0.0768389
-0.0785112
-0.0802144
-0.0819398
-0.0836997
-0.0854871
-0.0873146
-0.089168
-0.0910547
-0.0929719
-0.0949202
-0.0969101
-0.0989222
-0.100984
-0.103059
-0.10519
-0.10734
-0.109546
-0.111769
-0.114029
-0.116352
-0.118597
-0.120894
-0.12316
0.0278364
0.0238536
0.0133322
0.00476616
0.000101603
-0.00186214
-0.0030944
-0.00452939
-0.00586108
-0.0066886
-0.00718261
-0.0077072
-0.00840079
-0.00928811
-0.0103098
-0.011244
-0.0119923
-0.0127248
-0.0135535
-0.014412
-0.0152338
-0.016006
-0.016773
-0.0176059
-0.0185128
-0.0194462
-0.0203574
-0.0212162
-0.0220435
-0.0228892
-0.023757
-0.024604
-0.0254134
-0.0262299
-0.0270902
-0.0279668
-0.0288297
-0.029706
-0.0306245
-0.031555
-0.0324683
-0.0333899
-0.0343386
-0.0352834
-0.0362044
-0.0371508
-0.0381408
-0.0391451
-0.0401673
-0.0412315
-0.0423186
-0.043387
-0.0444474
-0.0455352
-0.0466254
-0.0477342
-0.0489114
-0.0501171
-0.0513188
-0.0525445
-0.0537908
-0.0550338
-0.0562935
-0.0575892
-0.0589182
-0.0602677
-0.0616478
-0.063055
-0.0644884
-0.0659449
-0.0674244
-0.06892
-0.0704436
-0.0719961
-0.0735805
-0.0751921
-0.0768386
-0.078511
-0.0802142
-0.0819396
-0.0836995
-0.0854869
-0.0873144
-0.0891678
-0.0910545
-0.0929717
-0.0949201
-0.09691
-0.0989221
-0.100983
-0.103059
-0.10519
-0.10734
-0.109546
-0.111769
-0.114029
-0.116352
-0.118597
-0.120894
-0.123162
0.0264238
0.0231846
0.0133832
0.0050477
0.000355855
-0.00174246
-0.00304158
-0.00447081
-0.00578738
-0.0066199
-0.00713535
-0.00768522
-0.00839745
-0.00928905
-0.0103023
-0.0112288
-0.0119793
-0.0127189
-0.013551
-0.0144083
-0.0152283
-0.0160017
-0.0167719
-0.0176065
-0.0185117
-0.0194416
-0.0203509
-0.0212107
-0.0220399
-0.0228851
-0.0237509
-0.0245975
-0.0254089
-0.0262271
-0.0270872
-0.0279634
-0.0288267
-0.0297035
-0.0306215
-0.0315517
-0.0324654
-0.0333875
-0.0343364
-0.0352815
-0.0362031
-0.0371497
-0.0381394
-0.0391437
-0.040166
-0.0412302
-0.0423174
-0.0433862
-0.0444467
-0.0455344
-0.0466246
-0.0477334
-0.0489106
-0.0501163
-0.0513182
-0.052544
-0.0537904
-0.0550334
-0.0562931
-0.0575888
-0.0589177
-0.0602673