/*--------------------------------*- C++ -*----------------------------------*\
| =========                 |                                                 |
| \\      /  F ield         | OpenFOAM: The Open Source CFD Toolbox           |
|  \\    /   O peration     | Version:  2506                                  |
|   \\  /    A nd           | Website:  www.openfoam.com                      |
|    \\/     M anipulation  |                                                 |
\*---------------------------------------------------------------------------*/
FoamFile
{
    version     2.0;
    format      ascii;
    arch        "LSB;label=32;scalar=64";
    class       volVectorField;
    location    "3.85";
    object      U;
}
// * * * * * * * * * * * * * * * * * * * * * * * * * * * * * * * * * * * * * //

dimensions      [0 1 -1 0 0 0 0];

internalField   nonuniform List<vector> 
9600
(
(0.944151 0.00188645 0)
(1.04418 -0.00968576 0)
(0.941717 0.00754993 0)
(1.03644 0.00219901 0)
(0.93606 0.00230952 0)
(1.01141 -0.0133307 0)
(0.988623 0.00517536 0)
(1.08045 -0.0248621 0)
(0.910863 0.0248961 0)
(1.13731 0.00565796 0)
(0.85571 0.0159157 0)
(1.09561 0.0176184 0)
(0.870206 0.00121096 0)
(1.03281 0.00288832 0)
(0.904623 -0.0142815 0)
(1.01291 -0.0152734 0)
(0.906512 -0.0188557 0)
(1.03413 -0.0283511 0)
(0.884756 -0.0110727 0)
(1.07115 -0.0367437 0)
(0.94944 0.00193341 0)
(1.0381 -0.00957982 0)
(0.945501 0.00750372 0)
(1.02957 0.0023556 0)
(0.943176 0.00247477 0)
(1.00385 -0.0137627 0)
(0.989751 0.0041825 0)
(1.07159 -0.0236179 0)
(0.916967 0.0240471 0)
(1.11781 0.00701932 0)
(0.879876 0.0162938 0)
(1.0543 0.0175928 0)
(0.924366 0.00247461 0)
(0.987214 0.00211865 0)
(0.963705 -0.0136576 0)
(0.971034 -0.0155181 0)
(0.973259 -0.0190462 0)
(0.966672 -0.0286384 0)
(0.976458 -0.0110225 0)
(0.968983 -0.038335 0)
(0.959085 0.00199306 0)
(1.02839 -0.00948146 0)
(0.953893 0.00748555 0)
(1.01931 0.00245778 0)
(0.954891 0.00260056 0)
(0.995209 -0.0141499 0)
(0.991927 0.00337107 0)
(1.06045 -0.0226665 0)
(0.931144 0.0231205 0)
(1.08779 0.00762694 0)
(0.917435 0.0169455 0)
(1.00959 0.0170765 0)
(0.962927 0.00335132 0)
(0.972321 0.00145973 0)
(0.977142 -0.0135012 0)
(0.974489 -0.0157903 0)
(0.972264 -0.0190789 0)
(0.972153 -0.0280799 0)
(0.972121 -0.013 0)
(0.978786 -0.0327491 0)
(0.970992 0.00205356 0)
(1.01738 -0.00939445 0)
(0.965236 0.00748677 0)
(1.00986 0.00250869 0)
(0.967991 0.00273182 0)
(0.988539 -0.0144084 0)
(0.994049 0.00263945 0)
(1.04913 -0.0219324 0)
(0.949459 0.0226347 0)
(1.05967 0.0078533 0)
(0.951072 0.0179185 0)
(0.987663 0.0165275 0)
(0.98217 0.00373363 0)
(0.978135 0.0012388 0)
(0.984449 -0.0134501 0)
(0.982353 -0.0157634 0)
(0.97774 -0.0187231 0)
(0.973959 -0.0283458 0)
(0.973536 -0.012842 0)
(0.975392 -0.0314324 0)
(0.982652 0.00211338 0)
(1.00764 -0.00931238 0)
(0.976738 0.00747842 0)
(1.00352 0.0025469 0)
(0.979708 0.0028671 0)
(0.985172 -0.0145627 0)
(0.995098 0.0019114 0)
(1.03826 -0.0213853 0)
(0.966479 0.0224585 0)
(1.04 0.00796964 0)
(0.9744 0.0188091 0)
(0.985918 0.0162391 0)
(0.993515 0.0037979 0)
(0.988624 0.00107695 0)
(0.992751 -0.0132752 0)
(0.988182 -0.0157473 0)
(0.985072 -0.0184047 0)
(0.976126 -0.0279898 0)
(0.975736 -0.0130901 0)
(0.974385 -0.0299719 0)
(0.992093 0.00216579 0)
(1.00078 -0.00923378 0)
(0.986082 0.00744487 0)
(1.00036 0.00258324 0)
(0.988874 0.00298652 0)
(0.984785 -0.0146205 0)
(0.995328 0.00124786 0)
(1.02737 -0.020996 0)
(0.979058 0.0223378 0)
(1.02877 0.0080254 0)
(0.9891 0.019385 0)
(0.99271 0.0160958 0)
(1.00241 0.00374702 0)
(0.997713 0.000946877 0)
(1 -0.0129963 0)
(0.99331 -0.0157079 0)
(0.990212 -0.0179472 0)
(0.979861 -0.0274722 0)
(0.976888 -0.0134021 0)
(0.974783 -0.0283955 0)
(0.998505 0.00220471 0)
(0.99696 -0.00915625 0)
(0.992299 0.00738363 0)
(0.999188 0.00261389 0)
(0.995612 0.0030847 0)
(0.986307 -0.0145889 0)
(0.995678 0.000707084 0)
(1.01615 -0.0207285 0)
(0.986889 0.0221528 0)
(1.02284 0.00805293 0)
(0.99824 0.0196731 0)
(1.00046 0.0160009 0)
(1.00954 0.00368506 0)
(1.00466 0.000860046 0)
(1.00545 -0.0126588 0)
(0.997976 -0.0155621 0)
(0.994084 -0.0174708 0)
(0.983774 -0.0268319 0)
(0.978236 -0.0136638 0)
(0.975627 -0.0266611 0)
(1.00218 0.00222895 0)
(0.99528 -0.00907648 0)
(0.995657 0.00730174 0)
(0.99886 0.00263237 0)
(1.00044 0.00315804 0)
(0.988717 -0.0144891 0)
(0.996657 0.000319455 0)
(1.00521 -0.0205232 0)
(0.991011 0.0218563 0)
(1.01894 0.00805616 0)
(1.00361 0.019752 0)
(1.00646 0.015923 0)
(1.01466 0.00364346 0)
(1.00974 0.000796405 0)
(1.00944 -0.0122669 0)
(1.0018 -0.0153388 0)
(0.99737 -0.0170225 0)
(0.987254 -0.0260592 0)
(0.98006 -0.0138134 0)
(0.976739 -0.0248531 0)
(1.00396 0.002242 0)
(0.994699 -0.00899138 0)
(0.997036 0.00720694 0)
(0.998852 0.00263388 0)
(1.00378 0.00320236 0)
(0.991285 -0.0143467 0)
(0.998034 9.46131e-05 0)
(0.995755 -0.0203235 0)
(0.992445 0.0214268 0)
(1.01515 0.00803736 0)
(1.00606 0.0196564 0)
(1.01031 0.0158559 0)
(1.01795 0.003601 0)
(1.0133 0.000755059 0)
(1.01232 -0.0118385 0)
(1.00472 -0.015082 0)
(1.00009 -0.0165992 0)
(0.990271 -0.0251471 0)
(0.982072 -0.013865 0)
(0.978116 -0.0230844 0)
(1.00468 0.00224894 0)
(0.994555 -0.0088989 0)
(0.997327 0.00710148 0)
(0.999068 0.00261588 0)
(1.00596 0.00321678 0)
(0.993534 -0.0141767 0)
(0.999283 1.27232e-05 0)
(0.988813 -0.020093 0)
(0.991942 0.0208833 0)
(1.01105 0.00800973 0)
(1.00641 0.0193986 0)
(1.01242 0.0157806 0)
(1.01985 0.00353866 0)
(1.01559 0.000745079 0)
(1.01422 -0.011418 0)
(1.00676 -0.0147868 0)
(1.00214 -0.0161758 0)
(0.992781 -0.0241508 0)
(0.984017 -0.0138683 0)
(0.979647 -0.0213708 0)
(1.00488 0.00225339 0)
(0.994619 -0.0087977 0)
(0.997128 0.00698332 0)
(0.999485 0.00257991 0)
(1.00728 0.0032051 0)
(0.995229 -0.0139859 0)
(1.00006 3.8051e-05 0)
(0.984689 -0.0198108 0)
(0.990288 0.020268 0)
(1.00717 0.00798378 0)
(1.00567 0.0189927 0)
(1.01339 0.0156725 0)
(1.02081 0.00345076 0)
(1.01686 0.000753391 0)
(1.01529 -0.0110136 0)
(1.00801 -0.0144392 0)
(1.00351 -0.0157699 0)
(0.994728 -0.0231212 0)
(0.985758 -0.013826 0)
(0.981201 -0.0196926 0)
(1.00483 0.00225659 0)
(0.994885 -0.00868715 0)
(0.996724 0.0068508 0)
(1 0.00253063 0)
(1.00804 0.00317529 0)
(0.996361 -0.0137751 0)
(1.00032 0.000125389 0)
(0.982975 -0.0194683 0)
(0.988321 0.019614 0)
(1.00421 0.00796299 0)
(1.00472 0.0184516 0)
(1.01369 0.0155351 0)
(1.02113 0.0033377 0)
(1.01729 0.000779202 0)
(1.01565 -0.0106204 0)
(1.00861 -0.0140505 0)
(1.00425 -0.0153945 0)
(0.996108 -0.0220883 0)
(0.987214 -0.0136872 0)
(0.982669 -0.0181132 0)
(1.00465 0.00225779 0)
(0.995356 -0.00856687 0)
(0.996218 0.00670582 0)
(1.00048 0.00247101 0)
(1.00843 0.00313404 0)
(0.997071 -0.0135404 0)
(1.0002 0.000232345 0)
(0.982931 -0.0190657 0)
(0.986627 0.0189374 0)
(1.00238 0.00794376 0)
(1.00399 0.0178044 0)
(1.01346 0.0153844 0)
(1.02101 0.00319965 0)
(1.01705 0.000831535 0)
(1.01548 -0.0102431 0)
(1.00873 -0.0136397 0)
(1.00448 -0.0150279 0)
(0.996988 -0.0210757 0)
(0.988363 -0.0134497 0)
(0.983966 -0.0166709 0)
(1.00441 0.00225555 0)
(0.995974 -0.00843628 0)
(0.995673 0.00655199 0)
(1.00079 0.00240289 0)
(1.00858 0.00308422 0)
(0.997538 -0.0132796 0)
(0.999887 0.000332923 0)
(0.983835 -0.0186041 0)
(0.98538 0.0182435 0)
(1.00139 0.00792846 0)
(1.00347 0.0170869 0)
(1.0127 0.0152303 0)
(1.02051 0.00304632 0)
(1.01635 0.000896953 0)
(1.01494 -0.00987814 0)
(1.00859 -0.0132204 0)
(1.0044 -0.0146404 0)
(0.997494 -0.0201205 0)
(0.989244 -0.0131413 0)
(0.985048 -0.0153424 0)
(1.00415 0.0022488 0)
(0.996634 -0.00829525 0)
(0.995159 0.00639322 0)
(1.00091 0.00232747 0)
(1.00858 0.00302536 0)
(0.997884 -0.0129917 0)
(0.999519 0.00041177 0)
(0.98514 -0.018087 0)
(0.9845 0.0175358 0)
(1.00074 0.00792143 0)
(1.00296 0.0163294 0)
(1.01147 0.0150809 0)
(1.01971 0.00287539 0)
(1.01542 0.000965722 0)
(1.0142 -0.00952884 0)
(1.00833 -0.0128028 0)
(1.00415 -0.0142073 0)
(0.997768 -0.0192516 0)
(0.98994 -0.0127837 0)
(0.985921 -0.0141066 0)
(1.00391 0.00223729 0)
(0.997249 -0.00814454 0)
(0.994741 0.00623262 0)
(1.00088 0.00224662 0)
(1.00846 0.00295502 0)
(0.998162 -0.0126779 0)
(0.999184 0.000462141 0)
(0.986499 -0.0175172 0)
(0.983885 0.0168182 0)
(1.0001 0.0079326 0)
(1.00241 0.0155436 0)
(1.00996 0.0149457 0)
(1.01873 0.00267923 0)
(1.01443 0.00104679 0)
(1.01338 -0.00918336 0)
(1.00805 -0.0124076 0)
(1.00387 -0.0137161 0)
(0.997924 -0.0184545 0)
(0.990533 -0.0123918 0)
(0.986628 -0.0129654 0)
(1.00369 0.00222138 0)
(0.997772 -0.00798563 0)
(0.99445 0.00607219 0)
(1.00076 0.00216261 0)
(1.00825 0.00287136 0)
(0.998382 -0.01234 0)
(0.998911 0.000482595 0)
(0.987735 -0.0168952 0)
(0.983496 0.0160917 0)
(0.999405 0.00797013 0)
(1.00183 0.014736 0)
(1.00842 0.0148133 0)
(1.01769 0.00246774 0)
(1.01351 0.00112336 0)
(1.01256 -0.00882514 0)
(1.00779 -0.0120621 0)
(1.0036 -0.0131466 0)
(0.998031 -0.0177072 0)
(0.991074 -0.0119905 0)
(0.98722 -0.0119004 0)
(1.00349 0.00220198 0)
(0.998195 -0.00782021 0)
(0.994279 0.00591218 0)
(1.00062 0.00207747 0)
(1.00798 0.00277434 0)
(0.998546 -0.01198 0)
(0.998691 0.000474106 0)
(0.988789 -0.0162254 0)
(0.983329 0.0153576 0)
(0.998722 0.00803331 0)
(1.00134 0.0139093 0)
(1.00705 0.0146801 0)
(1.01668 0.00223459 0)
(1.01272 0.00116459 0)
(1.01179 -0.00843845 0)
(1.00754 -0.0117711 0)
(1.00336 -0.0125142 0)
(0.998118 -0.0169728 0)
(0.991588 -0.0116197 0)
(0.987741 -0.0108694 0)
(1.0033 0.00217974 0)
(0.998531 -0.00764921 0)
(0.994198 0.00575259 0)
(1.0005 0.00199334 0)
(1.00767 0.00266543 0)
(0.998663 -0.0115999 0)
(0.998504 0.000438772 0)
(0.989663 -0.015513 0)
(0.98337 0.0146116 0)
(0.998142 0.00812489 0)
(1.001 0.0130635 0)
(1.00594 0.0145418 0)
(1.01576 0.00200239 0)
(1.01205 0.00116143 0)
(1.01108 -0.00799074 0)
(1.00732 -0.0115474 0)
(1.00313 -0.0118451 0)
(0.998195 -0.0162119 0)
(0.992088 -0.0113092 0)
(0.988218 -0.00985909 0)
(1.00311 0.00215555 0)
(0.998801 -0.0074741 0)
(0.994178 0.00559294 0)
(1.00042 0.00191187 0)
(1.00734 0.00254522 0)
(0.998747 -0.0112003 0)
(0.998336 0.000378328 0)
(0.990385 -0.0147587 0)
(0.983592 0.0138478 0)
(0.997712 0.00824014 0)
(1.00081 0.0122073 0)
(1.00508 0.0143856 0)
(1.01495 0.0017829 0)
(1.0115 0.00110148 0)
(1.01042 -0.00747188 0)
(1.00713 -0.0113825 0)
(1.00292 -0.0111626 0)
(0.998264 -0.0154004 0)
(0.992582 -0.0110807 0)
(0.988671 -0.00890178 0)
(1.00291 0.00213049 0)
(0.999026 -0.00729687 0)
(0.99419 0.00543205 0)
(1.00039 0.00183438 0)
(1.00699 0.00241303 0)
(0.998814 -0.0107816 0)
(0.998178 0.000293957 0)
(0.990992 -0.0139692 0)
(0.983954 0.013066 0)
(0.99743 0.00837441 0)
(1.00076 0.0113381 0)
(1.00445 0.014213 0)
(1.01422 0.00158119 0)
(1.01103 0.000982743 0)
(1.00979 -0.0068984 0)
(1.00697 -0.0112243 0)
(1.00274 -0.010516 0)
(0.998322 -0.0145167 0)
(0.993074 -0.0109102 0)
(0.989122 -0.00803882 0)
(1.00271 0.002105 0)
(0.999223 -0.00711827 0)
(0.994219 0.00526977 0)
(1.00039 0.00176168 0)
(1.00665 0.00227131 0)
(0.998874 -0.0103429 0)
(0.998029 0.000186412 0)
(0.991521 -0.0131485 0)
(0.984414 0.012261 0)
(0.997268 0.00852048 0)
(1.00081 0.0104744 0)
(1.00397 0.0139981 0)
(1.01356 0.00144471 0)
(1.01064 0.000790806 0)
(1.00918 -0.0062673 0)
(1.00683 -0.0110585 0)
(1.00258 -0.00993302 0)
(0.998364 -0.0135488 0)
(0.993564 -0.0107526 0)
(0.98959 -0.00729611 0)
(1.0025 0.00207944 0)
(0.999404 -0.00693853 0)
(0.994258 0.00510504 0)
(1.00041 0.00169427 0)
(1.0063 0.00212143 0)
(0.99893 -0.00988663 0)
(0.997889 6.1585e-05 0)
(0.992002 -0.0123052 0)
(0.984937 0.0114458 0)
(0.997186 0.00866132 0)
(1.0009 0.00963017 0)
(1.0036 0.0137241 0)
(1.01292 0.0013743 0)
(1.01029 0.000525874 0)
(1.00858 -0.00560449 0)
(1.00669 -0.0108516 0)
(1.00247 -0.00943636 0)
(0.998388 -0.0125012 0)
(0.994045 -0.0105904 0)
(0.990089 -0.00671024 0)
(1.00229 0.00205437 0)
(0.999571 -0.00675852 0)
(0.994308 0.00493764 0)
(1.00043 0.00163356 0)
(1.00596 0.00196101 0)
(0.99898 -0.00941294 0)
(0.99776 -8.30067e-05 0)
(0.992452 -0.01144 0)
(0.9855 0.0106152 0)
(0.997148 0.00880301 0)
(1.00103 0.00880807 0)
(1.00329 0.0133912 0)
(1.01229 0.00137888 0)
(1.00998 0.00020717 0)
(1.00798 -0.00493383 0)
(1.00654 -0.0105711 0)
(1.0024 -0.00904352 0)
(0.998391 -0.0114134 0)
(0.994503 -0.0103658 0)
(0.990636 -0.00629301 0)
(1.00209 0.00202966 0)
(0.999721 -0.00657794 0)
(0.994373 0.00476746 0)
(1.00044 0.00157808 0)
(1.00564 0.00179052 0)
(0.999021 -0.00891989 0)
(0.997649 -0.00024528 0)
(0.992879 -0.0105629 0)
(0.986094 0.0097759 0)
(0.997126 0.00893562 0)
(1.00117 0.0080283 0)
(1.00301 0.012988 0)
(1.01166 0.00146495 0)
(1.00969 -0.000149236 0)
(1.0074 -0.00427898 0)
(1.00636 -0.0102015 0)
(1.00238 -0.00874358 0)
(0.998382 -0.0103364 0)
(0.994927 -0.0100157 0)
(0.991228 -0.00603757 0)
(1.00191 0.00200532 0)
(0.999853 -0.0063968 0)
(0.994459 0.00459472 0)
(1.00043 0.00152788 0)
(1.00533 0.00161043 0)
(0.999048 -0.0084106 0)
(0.997558 -0.000419613 0)
(0.993286 -0.00968603 0)
(0.986713 0.0089475 0)
(0.997106 0.00903005 0)
(1.00131 0.00731026 0)
(1.00276 0.0125017 0)
(1.01103 0.00160659 0)
(1.00942 -0.000518968 0)
(1.00684 -0.00367575 0)
(1.00615 -0.00972112 0)
(1.00241 -0.00852437 0)
(0.998372 -0.00930106 0)
(0.995299 -0.00954042 0)
(0.991857 -0.00592871 0)
(1.00176 0.00198155 0)
(0.999965 -0.00621503 0)
(0.994569 0.00441786 0)
(1.0004 0.00148837 0)
(1.00504 0.00141879 0)
(0.999062 -0.00788593 0)
(0.997491 -0.000606469 0)
(0.993672 -0.00880785 0)
(0.987356 0.00813422 0)
(0.99708 0.00908495 0)
(1.00145 0.00665958 0)
(1.00252 0.0119394 0)
(1.01038 0.0018111 0)
(1.00916 -0.000882461 0)
(1.00632 -0.00313515 0)
(1.00589 -0.00913369 0)
(1.00249 -0.0083695 0)
(0.998378 -0.00834533 0)
(0.995609 -0.0089288 0)
(0.992509 -0.00589673 0)
(1.00162 0.00195777 0)
(1.00006 -0.00603148 0)
(0.994703 0.00423582 0)
(1.00035 0.00146041 0)
(1.00477 0.00121708 0)
(0.999064 -0.00735203 0)
(0.997447 -0.000792272 0)
(0.99404 -0.00794581 0)
(0.988019 0.00735355 0)
(0.997051 0.0090853 0)
(1.00159 0.00609374 0)
(1.00231 0.011309 0)
(1.00972 0.00206575 0)
(1.0089 -0.00121021 0)
(1.00583 -0.00267654 0)
(1.00559 -0.00845226 0)
(1.00261 -0.0082352 0)
(0.99842 -0.00751127 0)
(0.995854 -0.00818229 0)
(0.993161 -0.00586583 0)
(1.0015 0.00193421 0)
(1.00014 -0.00584723 0)
(0.994857 0.00404948 0)
(1.00029 0.00144185 0)
(1.00451 0.00100564 0)
(0.999056 -0.00680701 0)
(0.997426 -0.000979737 0)
(0.994391 -0.00711157 0)
(0.988695 0.00661573 0)
(0.997022 0.00901695 0)
(1.00171 0.00561552 0)
(1.00213 0.0106204 0)
(1.00906 0.00233164 0)
(1.00865 -0.00148291 0)
(1.00539 -0.00230016 0)
(1.00524 -0.00770013 0)
(1.00274 -0.00807568 0)
(0.998514 -0.00682441 0)
(0.996042 -0.00735214 0)
(0.993782 -0.00577404 0)
(1.00139 0.00191046 0)
(1.00022 -0.00566036 0)
(0.995027 0.00385495 0)
(1.00022 0.00143625 0)
(1.00427 0.000785505 0)
(0.99904 -0.00625764 0)
(0.997424 -0.00116119 0)
(0.99473 -0.00631367 0)
(0.989377 0.00593473 0)
(0.996999 0.0088736 0)
(1.0018 0.00521154 0)
(1.00196 0.00989401 0)
(1.00839 0.00259392 0)
(1.00838 -0.00169009 0)
(1.00499 -0.00200134 0)
(1.00485 -0.00689504 0)
(1.00287 -0.00786498 0)
(0.998669 -0.0062991 0)
(0.99619 -0.00648527 0)
(0.994342 -0.00556111 0)
(1.00129 0.00188595 0)
(1.00028 -0.00546957 0)
(0.995208 0.00365163 0)
(1.00015 0.00144512 0)
(1.00404 0.000561104 0)
(0.99902 -0.00571064 0)
(0.997438 -0.00132283 0)
(0.995059 -0.00556987 0)
(0.990057 0.00532454 0)
(0.996988 0.00865774 0)
(1.00188 0.00487157 0)
(1.00183 0.00915097 0)
(1.00773 0.00282993 0)
(1.00811 -0.0018351 0)
(1.00466 -0.00178647 0)
(1.00444 -0.00606362 0)
(1.00297 -0.00757995 0)
(0.99889 -0.00591134 0)
(0.996325 -0.0056425 0)
(0.994815 -0.00519631 0)
(1.00119 0.00186021 0)
(1.00035 -0.00527416 0)
(0.995398 0.00344109 0)
(1.00007 0.00146471 0)
(1.00382 0.000330337 0)
(0.998998 -0.00517042 0)
(0.997464 -0.00146092 0)
(0.995383 -0.00489125 0)
(0.990728 0.00479283 0)
(0.996988 0.00837761 0)
(1.00194 0.00460085 0)
(1.00172 0.00840879 0)
(1.00707 0.00303636 0)
(1.00783 -0.00190102 0)
(1.00439 -0.00164618 0)
(1.00401 -0.00523678 0)
(1.00304 -0.00719801 0)
(0.99917 -0.0056143 0)
(0.996473 -0.0049058 0)
(0.995194 -0.00469419 0)
(1.00109 0.00183326 0)
(1.00041 -0.00507532 0)
(0.995596 0.0032232 0)
(0.999987 0.00149668 0)
(1.00362 9.7729e-05 0)
(0.998977 -0.00465046 0)
(0.9975 -0.00156505 0)
(0.995705 -0.00427825 0)
(0.991386 0.00432915 0)
(0.997002 0.00804715 0)
(1.00197 0.00437005 0)
(1.00163 0.00769424 0)
(1.00642 0.00322263 0)
(1.00753 -0.00189518 0)
(1.00417 -0.00156213 0)
(1.00358 -0.00443696 0)
(1.00305 -0.00672191 0)
(0.999491 -0.00539023 0)
(0.996661 -0.00430765 0)
(0.995492 -0.00408886 0)
(1.001 0.00180513 0)
(1.00048 -0.00487147 0)
(0.995801 0.00299564 0)
(0.999904 0.00153968 0)
(1.00342 -0.000127837 0)
(0.998959 -0.00415009 0)
(0.997544 -0.0016316 0)
(0.996025 -0.00374219 0)
(0.992028 0.00393153 0)
(0.997029 0.00768927 0)
(1.00199 0.00415477 0)
(1.00158 0.00700835 0)
(1.00579 0.0033731 0)
(1.00721 -0.00182267 0)
(1.00402 -0.00154018 0)
(1.00317 -0.00368704 0)
(1.00301 -0.00617139 0)
(0.999832 -0.0051929 0)
(0.99691 -0.00382912 0)
(0.995735 -0.00345862 0)
(1.00091 0.00177369 0)
(1.00054 -0.00465907 0)
(0.996013 0.00276118 0)
(0.999818 0.00159023 0)
(1.00324 -0.000347014 0)
(0.998946 -0.00368148 0)
(0.997594 -0.00164718 0)
(0.996345 -0.00328688 0)
(0.992655 0.00359865 0)
(0.997065 0.00730339 0)
(1.00198 0.00396432 0)
(1.00154 0.00635567 0)
(1.00518 0.00348999 0)
(1.00687 -0.00168023 0)
(1.00392 -0.00156147 0)
(1.00279 -0.00301703 0)
(1.0029 -0.00555351 0)
(1.00017 -0.00497102 0)
(0.997223 -0.00345661 0)
(0.995956 -0.0028865 0)
(1.00082 0.00173926 0)
(1.00059 -0.00444077 0)
(0.996232 0.00252104 0)
(0.999731 0.00164925 0)
(1.00306 -0.000554443 0)
(0.99894 -0.00325413 0)
(0.997646 -0.00161432 0)
(0.996664 -0.00289623 0)
(0.993266 0.00330123 0)
(0.997112 0.00691294 0)
(1.00196 0.00377001 0)
(1.00154 0.00573873 0)
(1.0046 0.00357857 0)
(1.00649 -0.00147116 0)
(1.00386 -0.00160593 0)
(1.00247 -0.00244373 0)
(1.00274 -0.00488012 0)
(1.00049 -0.00470989 0)
(0.99759 -0.00317639 0)
(0.996188 -0.0024008 0)
(1.00073 0.00170199 0)
(1.00065 -0.00421737 0)
(0.996459 0.00227697 0)
(0.999641 0.00171154 0)
(1.0029 -0.000748681 0)
(0.998944 -0.0028665 0)
(0.997698 -0.00154146 0)
(0.99698 -0.00256924 0)
(0.993863 0.00303489 0)
(0.997167 0.00654709 0)
(1.00193 0.00358343 0)
(1.00156 0.00515432 0)
(1.00406 0.00363905 0)
(1.00608 -0.00119449 0)
(1.00383 -0.00165794 0)
(1.0022 -0.0019777 0)
(1.00253 -0.004174 0)
(1.00077 -0.00439782 0)
(0.997996 -0.00295311 0)
(0.996454 -0.00200947 0)
(1.00065 0.00166087 0)
(1.00069 -0.00398865 0)
(0.996694 0.00203032 0)
(0.999549 0.00177778 0)
(1.00275 -0.000926778 0)
(0.998961 -0.00252635 0)
(0.99775 -0.0014152 0)
(0.997291 -0.00230061 0)
(0.99445 0.00278575 0)
(0.99723 0.00620396 0)
(1.00188 0.00342574 0)
(1.0016 0.00459908 0)
(1.00357 0.00366956 0)
(1.00564 -0.000862297 0)
(1.00381 -0.00168831 0)
(1.00201 -0.00161447 0)
(1.0023 -0.003474 0)
(1.00098 -0.00403512 0)
(0.998421 -0.00275495 0)
(0.996764 -0.00170093 0)
(1.00057 0.00161425 0)
(1.00074 -0.0037483 0)
(0.996936 0.00177568 0)
(0.999455 0.00185172 0)
(1.0026 -0.00107925 0)
(0.998997 -0.00224262 0)
(0.9978 -0.00124185 0)
(0.997592 -0.00206681 0)
(0.995029 0.00253876 0)
(0.997306 0.00588661 0)
(1.00181 0.00329627 0)
(1.00167 0.00406137 0)
(1.00315 0.00363963 0)
(1.00517 -0.000487161 0)
(1.00379 -0.00167721 0)
(1.0019 -0.00135215 0)
(1.00206 -0.00280853 0)
(1.00113 -0.0036213 0)
(0.998848 -0.00256371 0)
(0.997115 -0.00145786 0)
(1.0005 0.0015616 0)
(1.00078 -0.00349583 0)
(0.997186 0.00150864 0)
(0.999362 0.00193793 0)
(1.00245 -0.0011976 0)
(0.999052 -0.0020166 0)
(0.997851 -0.00103104 0)
(0.997879 -0.0018511 0)
(0.995603 0.00227849 0)
(0.997398 0.00559048 0)
(1.00171 0.00320244 0)
(1.00176 0.0035607 0)
(1.00279 0.00354258 0)
(1.00469 -9.98867e-05 0)
(1.00375 -0.00160761 0)
(1.00185 -0.00119656 0)
(1.00184 -0.00220786 0)
(1.00122 -0.00314954 0)
(0.999259 -0.00236985 0)
(0.997503 -0.00126252 0)
(1.00043 0.0014999 0)
(1.00081 -0.00322732 0)
(0.997445 0.00123142 0)
(0.999273 0.00202429 0)
(1.00231 -0.00127858 0)
(0.999128 -0.00185156 0)
(0.997905 -0.00078337 0)
(0.998145 -0.00164233 0)
(0.996172 0.00200004 0)
(0.997511 0.0052937 0)
(1.0016 0.00315241 0)
(1.00185 0.00311301 0)
(1.00251 0.00338215 0)
(1.0042 0.000264424 0)
(1.00368 -0.00146893 0)
(1.00187 -0.00110201 0)
(1.00166 -0.00170053 0)
(1.00126 -0.00264161 0)
(0.999638 -0.00215602 0)
(0.997917 -0.00109665 0)
(1.00037 0.0014351 0)
(1.00083 -0.00295556 0)
(0.99771 0.000950133 0)
(0.999188 0.00210961 0)
(1.00216 -0.00130529 0)
(0.999228 -0.00176023 0)
(0.997968 -0.000535369 0)
(0.998387 -0.00141747 0)
(0.996733 0.00172348 0)
(0.997652 0.00499674 0)
(1.00146 0.003147 0)
(1.00193 0.0027225 0)
(1.00229 0.00314189 0)
(1.00374 0.000587625 0)
(1.00358 -0.00126799 0)
(1.00193 -0.00104206 0)
(1.00155 -0.00129213 0)
(1.00126 -0.00213128 0)
(0.999974 -0.00190171 0)
(0.998345 -0.00095077 0)
(1.00031 0.00135798 0)
(1.00085 -0.00266442 0)
(0.997984 0.0006618 0)
(0.999113 0.00217118 0)
(1.00199 -0.00125836 0)
(0.999349 -0.00173018 0)
(0.998052 -0.00030079 0)
(0.998603 -0.00115564 0)
(0.997279 0.00146732 0)
(0.997824 0.00469531 0)
(1.00131 0.00317782 0)
(1.00199 0.00241479 0)
(1.00215 0.00287043 0)
(1.00331 0.000870291 0)
(1.00344 -0.00101247 0)
(1.00202 -0.000978371 0)
(1.0015 -0.000978315 0)
(1.00125 -0.00164648 0)
(1.00026 -0.0016109 0)
(0.998769 -0.000816048 0)
(1.00026 0.00127405 0)
(1.00085 -0.00236575 0)
(0.998252 0.000375439 0)
(0.999051 0.00221349 0)
(1.00183 -0.00116091 0)
(0.99949 -0.00172391 0)
(0.998156 -8.98436e-05 0)
(0.998788 -0.000843518 0)
(0.997805 0.00125042 0)
(0.998038 0.00434338 0)
(1.00116 0.00319161 0)
(1.00203 0.00217825 0)
(1.00207 0.00258016 0)
(1.00293 0.00107996 0)
(1.00327 -0.000725153 0)
(1.00211 -0.000896383 0)
(1.0015 -0.000746409 0)
(1.00123 -0.00120933 0)
(1.00048 -0.00129067 0)
(0.999169 -0.000674806 0)
(1.00021 0.001185 0)
(1.00084 -0.00206651 0)
(0.998525 0.000111191 0)
(0.999012 0.00220785 0)
(1.00164 -0.000981752 0)
(0.999636 -0.00170762 0)
(0.998288 8.27332e-05 0)
(0.998951 -0.000517641 0)
(0.998297 0.00105975 0)
(0.998284 0.00392171 0)
(1.00101 0.00316225 0)
(1.00203 0.0020175 0)
(1.00203 0.00229125 0)
(1.00262 0.00122189 0)
(1.00307 -0.000423465 0)
(1.0022 -0.000784597 0)
(1.00156 -0.00057941 0)
(1.00124 -0.000842541 0)
(1.00067 -0.000961425 0)
(0.999545 -0.000525266 0)
(1.00017 0.00108497 0)
(1.00082 -0.00175799 0)
(0.998792 -0.000130544 0)
(0.998997 0.00214472 0)
(1.00145 -0.000706789 0)
(0.999782 -0.00167279 0)
(0.998451 0.000173355 0)
(0.999092 -0.00021403 0)
(0.998743 0.000924533 0)
(0.998559 0.00350648 0)
(1.0009 0.00310893 0)
(1.002 0.00192581 0)
(1.00203 0.00203734 0)
(1.00237 0.00130267 0)
(1.00287 -0.000127128 0)
(1.00227 -0.000634504 0)
(1.00167 -0.000447927 0)
(1.00129 -0.000547762 0)
(1.00083 -0.000637682 0)
(0.999884 -0.000347174 0)
(1.00013 0.000984274 0)
(1.00078 -0.00146189 0)
(0.999048 -0.000345 0)
(0.999013 0.00204002 0)
(1.00125 -0.000420326 0)
(0.999913 -0.00160147 0)
(0.99864 0.000200281 0)
(0.999227 8.15726e-05 0)
(0.999145 0.000874923 0)
(0.998851 0.00311565 0)
(1.00081 0.00300726 0)
(1.00196 0.00185951 0)
(1.00204 0.00181537 0)
(1.00218 0.00133294 0)
(1.00268 0.000142552 0)
(1.00231 -0.000452728 0)
(1.00181 -0.000325493 0)
(1.00138 -0.000313548 0)
(1.00098 -0.000342909 0)
(1.00018 -0.000137307 0)
(1.0001 0.000880214 0)
(1.00073 -0.00117747 0)
(0.999288 -0.000519184 0)
(0.999057 0.00185576 0)
(1.00106 -0.000128722 0)
(1.00003 -0.00145929 0)
(0.998854 0.000207324 0)
(0.999362 0.000336445 0)
(0.999495 0.000877269 0)
(0.999147 0.00275047 0)
(1.00076 0.00287017 0)
(1.00189 0.00182599 0)
(1.00207 0.00164255 0)
(1.00206 0.00132975 0)
(1.00251 0.000379958 0)
(1.00234 -0.000251035 0)
(1.00195 -0.000207 0)
(1.00151 -0.000136912 0)
(1.00115 -0.00011006 0)
(1.00043 6.6791e-05 0)
(1.00008 0.000776502 0)
(1.00067 -0.000914205 0)
(0.999503 -0.000646853 0)
(0.999132 0.00161598 0)
(1.00087 0.000158848 0)
(1.00011 -0.00124933 0)
(0.999077 0.000193418 0)
(0.9995 0.000526986 0)
(0.9998 0.000910043 0)
(0.999441 0.00244118 0)
(1.00074 0.00271596 0)
(1.00183 0.00180191 0)
(1.00209 0.00150342 0)
(1.00199 0.00129241 0)
(1.00236 0.000576111 0)
(1.00234 -4.25319e-05 0)
(1.00209 -8.32292e-05 0)
(1.00167 1.57869e-05 0)
(1.00132 7.59384e-05 0)
(1.00067 0.000256086 0)
(1.00006 0.000676735 0)
(1.00061 -0.000683711 0)
(0.999689 -0.000720537 0)
(0.999234 0.00134698 0)
(1.00072 0.000406376 0)
(1.00017 -0.000984724 0)
(0.9993 0.000191039 0)
(0.999646 0.000665782 0)
(1.00007 0.000956218 0)
(0.999723 0.00218577 0)
(1.00075 0.00254673 0)
(1.00176 0.0017748 0)
(1.00212 0.00140211 0)
(1.00197 0.00124435 0)
(1.00225 0.000734982 0)
(1.00232 0.000168827 0)
(1.00222 5.06334e-05 0)
(1.00183 0.000152968 0)
(1.00152 0.000228968 0)
(1.00091 0.000412379 0)
(1.00004 0.000588453 0)
(1.00054 -0.000495593 0)
(0.999845 -0.000744676 0)
(0.999359 0.00106522 0)
(1.00059 0.000607616 0)
(1.00021 -0.000674372 0)
(0.999512 0.000213297 0)
(0.999796 0.000746969 0)
(1.0003 0.000998662 0)
(0.999989 0.00197653 0)
(1.00079 0.00238113 0)
(1.00169 0.00175201 0)
(1.00214 0.0013359 0)
(1.00198 0.00119083 0)
(1.00219 0.000846322 0)
(1.0023 0.000364111 0)
(1.00233 0.000187722 0)
(1.00201 0.000264535 0)
(1.00172 0.000359863 0)
(1.00115 0.000523085 0)
(1.00003 0.000508254 0)
(1.00046 -0.000341472 0)
(0.99997 -0.000713765 0)
(0.9995 0.00079267 0)
(1.0005 0.000734727 0)
(1.00022 -0.000354208 0)
(0.9997 0.000276403 0)
(0.999949 0.000796074 0)
(1.00051 0.00103413 0)
(1.00024 0.00180517 0)
(1.00085 0.00222297 0)
(1.00164 0.00172995 0)
(1.00215 0.00129169 0)
(1.00202 0.00113659 0)
(1.00216 0.000920524 0)
(1.00229 0.000539641 0)
(1.00242 0.000332454 0)
(1.00218 0.000364598 0)
(1.00192 0.000479138 0)
(1.0014 0.000610661 0)
(1.00002 0.000441684 0)
(1.00039 -0.00022341 0)
(1.00007 -0.000618963 0)
(0.999647 0.000546625 0)
(1.00046 0.000777295 0)
(1.00023 -5.82822e-05 0)
(0.999862 0.000379927 0)
(1.0001 0.000834463 0)
(1.0007 0.00104574 0)
(1.00047 0.00166336 0)
(1.00093 0.00207404 0)
(1.00159 0.00170503 0)
(1.00214 0.00127399 0)
(1.00207 0.00109322 0)
(1.00217 0.000963454 0)
(1.00229 0.000683068 0)
(1.0025 0.000478641 0)
(1.00234 0.000460788 0)
(1.00212 0.000576591 0)
(1.00164 0.000691077 0)
(1.00001 0.000390026 0)
(1.00033 -0.000136726 0)
(1.00013 -0.000489273 0)
(0.999786 0.000355648 0)
(1.00045 0.000743561 0)
(1.00024 0.000199798 0)
(0.999998 0.000512834 0)
(1.00023 0.000871682 0)
(1.00086 0.0010453 0)
(1.00069 0.00153717 0)
(1.00103 0.0019371 0)
(1.00156 0.00167555 0)
(1.00213 0.00127781 0)
(1.00212 0.00106904 0)
(1.00221 0.000979098 0)
(1.00231 0.000789114 0)
(1.00256 0.000611702 0)
(1.00249 0.000557827 0)
(1.00231 0.000650589 0)
(1.00187 0.000765037 0)
(1 0.000350538 0)
(1.00028 -7.48328e-05 0)
(1.00018 -0.000353858 0)
(0.999909 0.000238454 0)
(1.00048 0.000659267 0)
(1.00027 0.000394263 0)
(1.00011 0.000663762 0)
(1.00034 0.000928863 0)
(1.00101 0.00104992 0)
(1.00089 0.00142096 0)
(1.00114 0.00180644 0)
(1.00155 0.00164217 0)
(1.00212 0.00128988 0)
(1.00217 0.00106108 0)
(1.00228 0.000983458 0)
(1.00235 0.00086216 0)
(1.00262 0.000724042 0)
(1.00262 0.000652517 0)
(1.0025 0.000709863 0)
(1.00209 0.000824943 0)
(0.999997 0.000322374 0)
(1.00023 -3.17532e-05 0)
(1.00022 -0.000223706 0)
(1.00001 0.000192339 0)
(1.00052 0.0005664 0)
(1.00032 0.000505288 0)
(1.00021 0.0008032 0)
(1.00044 0.00100272 0)
(1.00113 0.00105762 0)
(1.00107 0.0013211 0)
(1.00126 0.00167758 0)
(1.00155 0.00160253 0)
(1.0021 0.00130631 0)
(1.0022 0.00106604 0)
(1.00235 0.000987999 0)
(1.00241 0.000907054 0)
(1.00269 0.000809557 0)
(1.00273 0.0007392 0)
(1.00268 0.000762916 0)
(1.0023 0.000862263 0)
(0.999994 0.000303874 0)
(1.0002 -9.65424e-07 0)
(1.00024 -0.000112223 0)
(1.00009 0.000199452 0)
(1.00058 0.000496215 0)
(1.0004 0.000552997 0)
(1.00032 0.000915481 0)
(1.00051 0.00108667 0)
(1.00122 0.00108301 0)
(1.00123 0.00124116 0)
(1.00139 0.00155039 0)
(1.00158 0.00154914 0)
(1.00209 0.00132294 0)
(1.00223 0.00108587 0)
(1.00242 0.000995573 0)
(1.00249 0.000937755 0)
(1.00276 0.000867827 0)
(1.00284 0.000810443 0)
(1.00283 0.000813881 0)
(1.0025 0.000885567 0)
(0.999991 0.000288891 0)
(1.00017 3.05475e-05 0)
(1.00027 -2.25232e-05 0)
(1.00016 0.000235745 0)
(1.00063 0.00046215 0)
(1.00049 0.000562557 0)
(1.00043 0.000982913 0)
(1.00058 0.00116734 0)
(1.00129 0.00112857 0)
(1.00137 0.00118249 0)
(1.00152 0.00143627 0)
(1.00163 0.00148001 0)
(1.00208 0.00132774 0)
(1.00226 0.00111442 0)
(1.00248 0.00100572 0)
(1.00257 0.000957003 0)
(1.00284 0.000904267 0)
(1.00294 0.000857395 0)
(1.00297 0.000855578 0)
(1.00268 0.00090013 0)
(0.99999 0.000277267 0)
(1.00015 6.13915e-05 0)
(1.0003 4.82072e-05 0)
(1.00021 0.000283998 0)
(1.00068 0.000470114 0)
(1.00058 0.000558165 0)
(1.00055 0.00100343 0)
(1.00064 0.00123082 0)
(1.00134 0.00118417 0)
(1.00148 0.00115278 0)
(1.00165 0.00133759 0)
(1.0017 0.00140381 0)
(1.0021 0.00131173 0)
(1.00228 0.0011413 0)
(1.00254 0.00102582 0)
(1.00265 0.000969532 0)
(1.00292 0.00092895 0)
(1.00303 0.000884301 0)
(1.0031 0.000882056 0)
(1.00285 0.000908308 0)
(0.99999 0.000268429 0)
(1.00014 9.12049e-05 0)
(1.00033 0.000103122 0)
(1.00027 0.000333588 0)
(1.00072 0.000508679 0)
(1.00068 0.00056412 0)
(1.00068 0.000991597 0)
(1.00072 0.00126886 0)
(1.00137 0.00124217 0)
(1.00156 0.001151 0)
(1.00176 0.00125801 0)
(1.00178 0.00132958 0)
(1.00214 0.00128171 0)
(1.0023 0.00115195 0)
(1.00259 0.00104819 0)
(1.00272 0.000980088 0)
(1.003 0.000943679 0)
(1.00313 0.000899182 0)
(1.00322 0.000889622 0)
(1.003 0.000910851 0)
(0.999991 0.000259173 0)
(1.00013 0.000124594 0)
(1.00035 0.000150396 0)
(1.00031 0.000373447 0)
(1.00075 0.00056358 0)
(1.00076 0.000590199 0)
(1.00082 0.000967994 0)
(1.00081 0.00127123 0)
(1.00139 0.00129205 0)
(1.00161 0.0011706 0)
(1.00186 0.00120587 0)
(1.00187 0.001258 0)
(1.00218 0.00124146 0)
(1.00234 0.00114494 0)
(1.00264 0.00105684 0)
(1.00279 0.000988153 0)
(1.00308 0.000946166 0)
(1.00322 0.000904836 0)
(1.00334 0.00088208 0)
(1.00313 0.000901585 0)
(0.999992 0.000251383 0)
(1.00012 0.000157438 0)
(1.00038 0.000193106 0)
(1.00036 0.000402435 0)
(1.00078 0.000619972 0)
(1.00083 0.000638786 0)
(1.00095 0.000947283 0)
(1.00091 0.00124765 0)
(1.00142 0.00132295 0)
(1.00164 0.00119854 0)
(1.00194 0.00118186 0)
(1.00196 0.00119893 0)