/*--------------------------------*- C++ -*----------------------------------*\
| =========                 |                                                 |
| \\      /  F ield         | OpenFOAM: The Open Source CFD Toolbox           |
|  \\    /   O peration     | Version:  2506                                  |
|   \\  /    A nd           | Website:  www.openfoam.com                      |
|    \\/     M anipulation  |                                                 |
\*---------------------------------------------------------------------------*/
FoamFile
{
    version     2.0;
    format      ascii;
    arch        "LSB;label=32;scalar=64";
    class       volScalarField;
    location    "2.25";
    object      p;
}
// * * * * * * * * * * * * * * * * * * * * * * * * * * * * * * * * * * * * * //

dimensions      [0 2 -2 0 0 0 0];

internalField   nonuniform List<scalar> 
9600
(
-6.43548e-11
-0.000810545
-0.00158607
-0.000723061
-0.000250055
-0.00216478
-0.000688093
0.000959256
2.51568e-05
-7.91594e-05
-0.000316388
-0.00154074
-0.00177721
-0.000415894
0.000185442
0.00127541
0.0017626
0.00399016
0.0058312
0.0107081
1.27582e-07
-0.000811597
-0.00158155
-0.000735214
-0.000256796
-0.00215032
-0.000682123
0.000944216
2.80213e-05
-0.000118363
-0.000313643
-0.00154668
-0.00177693
-0.000409142
0.000188847
0.00127069
0.00177956
0.00397133
0.00585041
0.0103115
-1.5343e-07
-0.000812842
-0.00157658
-0.000749004
-0.000261877
-0.00213505
-0.00067958
0.000923903
2.90174e-05
-0.000155735
-0.000307264
-0.00154171
-0.00177495
-0.000399422
0.00019352
0.00126366
0.00179982
0.00393912
0.00584927
0.00983153
-1.22999e-06
-0.000814722
-0.00157116
-0.000758834
-0.000268243
-0.00212052
-0.000676613
0.000898705
2.6888e-05
-0.000194398
-0.000302942
-0.001523
-0.00177567
-0.000389725
0.000198742
0.00125171
0.00182124
0.00389456
0.00582659
0.00937337
-3.23976e-06
-0.000817356
-0.00156384
-0.000765559
-0.000277457
-0.00210474
-0.000671859
0.000867462
2.34995e-05
-0.000235927
-0.000299092
-0.0014948
-0.00177691
-0.000380628
0.000205103
0.00123606
0.00184208
0.00384034
0.00578204
0.00893712
-6.13813e-06
-0.000820551
-0.00155445
-0.000770018
-0.000288855
-0.00208648
-0.000665536
0.000831236
2.05414e-05
-0.000279088
-0.000293378
-0.00145977
-0.00177586
-0.000372646
0.000213555
0.00121731
0.00186084
0.00377894
0.00571701
0.00851721
-9.75452e-06
-0.000824156
-0.0015433
-0.000772793
-0.000301455
-0.00206544
-0.000658275
0.000791552
1.88232e-05
-0.00032301
-0.000285556
-0.00141984
-0.00177143
-0.000365865
0.000224125
0.00119616
0.00187639
0.00371289
0.00562969
0.00812562
-1.38742e-05
-0.000828069
-0.00153077
-0.000774612
-0.000314397
-0.00204184
-0.000650595
0.000749495
1.87329e-05
-0.00036741
-0.000276237
-0.00137639
-0.00176343
-0.000360069
0.000236032
0.00117394
0.00188699
0.00364287
0.00551978
0.0077433
-1.83054e-05
-0.000832244
-0.00151721
-0.000776065
-0.000327089
-0.0020162
-0.00064288
0.000705761
2.0293e-05
-0.000412179
-0.000266006
-0.00133035
-0.00175204
-0.000355084
0.000248223
0.00115197
0.0018906
0.00356879
0.00538915
0.00736963
-2.29175e-05
-0.000836696
-0.00150292
-0.000777501
-0.000339293
-0.0019892
-0.000635381
0.000660848
2.31869e-05
-0.000457162
-0.000255354
-0.00128235
-0.00173793
-0.000350598
0.000259764
0.00113082
0.00188568
0.00349074
0.00524028
0.00700214
-2.76398e-05
-0.000841464
-0.00148802
-0.000779113
-0.00035103
-0.00196132
-0.000628224
0.000615064
2.688e-05
-0.000502134
-0.000244734
-0.00123298
-0.00172207
-0.000345979
0.000269627
0.00111069
0.00187156
0.00340824
0.00507531
0.00663745
-3.24367e-05
-0.000846574
-0.00147258
-0.000781015
-0.000362405
-0.00193282
-0.000621496
0.000568584
3.07609e-05
-0.000546788
-0.00023463
-0.00118272
-0.00170541
-0.000340557
0.000276691
0.00109198
0.001848
0.00331944
0.00489722
0.00627319
-3.7286e-05
-0.000852034
-0.00145661
-0.000783278
-0.000373498
-0.00190383
-0.000615307
0.000521572
3.42595e-05
-0.000590741
-0.000225624
-0.00113179
-0.00168882
-0.000333801
0.000280108
0.00107464
0.00181523
0.00322144
0.0047102
0.00590919
-4.21693e-05
-0.00085784
-0.00144012
-0.000785939
-0.000384365
-0.00187436
-0.000609786
0.000474196
3.69002e-05
-0.000633585
-0.000218338
-0.00108009
-0.00167322
-0.000325203
0.000279475
0.00105742
0.00177452
0.00311113
0.00451781
0.0055471
-4.70704e-05
-0.00086399
-0.00142313
-0.000789013
-0.000395045
-0.00184439
-0.00060509
0.000426631
3.82704e-05
-0.000674893
-0.00021335
-0.00102746
-0.00165942
-0.000314385
0.000274898
0.00103822
0.00172801
0.00298582
0.00432129
0.00518865
-5.19762e-05
-0.000870483
-0.00140565
-0.000792506
-0.000405585
-0.00181385
-0.00060138
0.00037907
3.7957e-05
-0.000714198
-0.000211229
-0.000973629
-0.001648
-0.000301487
0.000267069
0.00101456
0.00167822
0.00284418
0.0041196
0.00483745
-5.68759e-05
-0.000877327
-0.00138772
-0.000796406
-0.000416053
-0.00178263
-0.000598849
0.000331757
3.55642e-05
-0.000751053
-0.000212543
-0.000918342
-0.00163928
-0.000287111
0.000257117
0.00098358
0.00162748
0.00268638
0.00391028
0.00449794
-6.17601e-05
-0.000884519
-0.00136938
-0.000800688
-0.000426522
-0.00175061
-0.000597759
0.000284954
3.07529e-05
-0.000785035
-0.000217799
-0.000861422
-0.00163343
-0.000272214
0.000246774
0.000942086
0.00157676
0.00251431
0.00368992
0.00417404
-6.66222e-05
-0.000892054
-0.00135068
-0.000805309
-0.000437072
-0.00171766
-0.000598412
0.000238934
2.32201e-05
-0.000815786
-0.000227378
-0.000802856
-0.00163028
-0.000258485
0.000238556
0.000887461
0.00152492
0.00233183
0.00345511
0.00386785
-7.14577e-05
-0.000899916
-0.00133171
-0.000810184
-0.000447841
-0.00168357
-0.000601128
0.000193973
1.26822e-05
-0.000843082
-0.000241426
-0.000742974
-0.00162913
-0.000248185
0.000234721
0.000818562
0.00146943
0.00214357
0.00322128
0.00357952
-7.62649e-05
-0.00090807
-0.00131257
-0.000815183
-0.000459019
-0.00164815
-0.00060618
0.000150271
-1.09295e-06
-0.000866888
-0.000259968
-0.000682501
-0.00162872
-0.000243557
0.000236413
0.000735399
0.00140676
0.00195461
0.00295248
0.00330618
-8.10525e-05
-0.000916457
-0.00129341
-0.000820151
-0.000470815
-0.00161119
-0.000613763
0.000107968
-1.82799e-05
-0.000887287
-0.00028281
-0.000622457
-0.0016277
-0.000246732
0.000243903
0.000639545
0.00133265
0.00177052
0.00266461
0.0030411
-8.58358e-05
-0.000925002
-0.00127437
-0.000824893
-0.000483474
-0.00157259
-0.000624053
6.71511e-05
-3.89377e-05
-0.000904485
-0.000309216
-0.000564084
-0.00162519
-0.000259641
0.000256766
0.000534001
0.00124275
0.00159509
0.00236281
0.00277601
-9.06358e-05
-0.00093359
-0.00125567
-0.000829177
-0.000497215
-0.00153225
-0.000637228
2.82762e-05
-6.27752e-05
-0.000919086
-0.000338279
-0.00050841
-0.00162053
-0.000283759
0.00027369
0.00042215
0.00113334
0.00142985
0.00205317
0.00250321
-9.54987e-05
-0.000942068
-0.00123757
-0.000832755
-0.000512202
-0.00149017
-0.000653314
-8.08485e-06
-8.9248e-05
-0.000932043
-0.000369333
-0.00045628
-0.00161301
-0.000319953
0.000292614
0.000307339
0.0010019
0.00127468
0.0017429
0.00221613
-0.000100495
-0.000950241
-0.00122037
-0.000835388
-0.000528601
-0.00144636
-0.000672168
-4.4735e-05
-0.000117701
-0.000944393
-0.000401788
-0.000408502
-0.00160235
-0.000368562
0.000310933
0.000193301
0.000847197
0.00112753
0.00144032
0.00190988
-0.000105714
-0.000957851
-0.00120437
-0.000836891
-0.000546529
-0.00140097
-0.000693467
-8.14148e-05
-0.000147075
-0.000957002
-0.000435412
-0.000365399
-0.0015889
-0.000430082
0.000325826
8.39352e-05
0.000669358
0.000984626
0.00115414
0.00158217
-0.000111283
-0.000964588
-0.00118985
-0.000837104
-0.000566066
-0.00135436
-0.000716584
-0.000118999
-0.000176267
-0.000970268
-0.000470718
-0.000327002
-0.00157263
-0.000505049
0.00033406
-1.69416e-05
0.0004703
0.0008398
0.000892681
0.00123588
-0.000117352
-0.000970109
-0.0011771
-0.000835905
-0.000587148
-0.00130714
-0.000740564
-0.000158798
-0.000204672
-0.000984252
-0.000508489
-0.000293415
-0.00155293
-0.000593455
0.000331416
-0.000105694
0.000254434
0.000684598
0.000662742
0.000881735
-0.000124103
-0.000974039
-0.00116642
-0.000833324
-0.000609463
-0.00126001
-0.000764218
-0.000201822
-0.000232051
-0.000998775
-0.00054952
-0.000264945
-0.00152957
-0.000694877
0.000313569
-0.000179809
2.76197e-05
0.000525148
0.000466638
0.000537733
-0.00013174
-0.000975989
-0.00115799
-0.000829526
-0.000632588
-0.00121376
-0.000786312
-0.000248507
-0.000258565
-0.00101318
-0.000594846
-0.000242718
-0.00150243
-0.000807967
0.000277021
-0.000238806
-0.000203749
0.000328288
0.000297725
0.00022301
-0.000140489
-0.000975594
-0.00115187
-0.000824819
-0.00065593
-0.00116942
-0.000805751
-0.000299269
-0.000284935
-0.00102654
-0.000645445
-0.00022844
-0.0014709
-0.000930428
0.000218361
-0.000284134
-0.000431062
0.000103222
0.000143139
-4.68115e-05
-0.000150589
-0.00097251
-0.00114797
-0.000819794
-0.000678524
-0.00112809
-0.000821831
-0.000353764
-0.000312416
-0.00103815
-0.00070173
-0.000224286
-0.00143438
-0.00105934
0.000134578
-0.00031853
-0.000645439
-0.000147098
-1.29894e-05
-0.000266732
-0.000162222
-0.000966482
-0.00114607
-0.000815236
-0.000699432
-0.00109049
-0.000834321
-0.00041086
-0.000342439
-0.00104782
-0.00076366
-0.000232584
-0.00139329
-0.0011909
2.47105e-05
-0.000346186
-0.000840618
-0.000415547
-0.000183933
-0.000445487
-0.000175532
-0.000957423
-0.00114562
-0.000812038
-0.000718238
-0.00105696
-0.000843401
-0.000469208
-0.000376116
-0.00105585
-0.000830993
-0.000255692
-0.00134879
-0.00132009
-0.000110619
-0.000372471
-0.00101298
-0.000694452
-0.000376126
-0.000597971
-0.000190618
-0.000945432
-0.0011458
-0.000810946
-0.000734828
-0.00102751
-0.000849451
-0.000527789
-0.000414353
-0.00106292
-0.000903299
-0.000295817
-0.0013022
-0.00144131
-0.000269762
-0.00040327
-0.00115998
-0.000977264
-0.000590576
-0.000738826
-0.00020752
-0.000930785
-0.00114564
-0.000812391
-0.000749592
-0.00100221
-0.000852888
-0.00058591
-0.000458257
-0.00107016
-0.000979377
-0.00035335
-0.0012558
-0.00155
-0.000449253
-0.000445399
-0.00128062
-0.00125778
-0.000826889
-0.000878334
-0.000226168
-0.000913901
-0.00114424
-0.000816573
-0.000763284
-0.000981155
-0.000854269
-0.000643107
-0.000508914
-0.00107872
-0.00105667
-0.000426952
-0.00121317
-0.00164335
-0.00064478
-0.000506774
-0.00137512
-0.00152799
-0.00108581
-0.0010239
-0.000246385
-0.000895309
-0.00114098
-0.000823265
-0.000776571
-0.000964752
-0.000854889
-0.000698553
-0.000566578
-0.00108998
-0.00113175
-0.000514459
-0.0011786
-0.00172008
-0.000852466
-0.000593229
-0.00144572
-0.00177717
-0.00136655
-0.0011838
-0.000268003
-0.000875465
-0.0011354
-0.00083197
-0.00078977
-0.00095408
-0.000856651
-0.000751351
-0.000630704
-0.00110503
-0.00120229
-0.000612997
-0.00115568
-0.00178082
-0.00106614
-0.000708401
-0.00150056
-0.00199564
-0.00166238
-0.00136748
-0.000290748
-0.000854743
-0.00112734
-0.000842373
-0.000802954
-0.000950135
-0.000861902
-0.000801157
-0.000699295
-0.00112444
-0.00126751
-0.000719315
-0.00114675
-0.00182765
-0.00128026
-0.000853116
-0.00155002
-0.00217705
-0.00196039
-0.00158208
-0.000314284
-0.000833445
-0.00111679
-0.000854363
-0.000815512
-0.000953179
-0.000873629
-0.000848034
-0.000769941
-0.00114857
-0.00132728
-0.000830367
-0.00115325
-0.0018631
-0.00148623
-0.00102536
-0.0016044
-0.00232098
-0.00224527
-0.00182713
-0.000338409
-0.000811796
-0.00110374
-0.000867693
-0.000826968
-0.000962823
-0.000894572
-0.000894025
-0.000841041
-0.00117683
-0.00138155
-0.000943201
-0.00117541
-0.0018897
-0.00168155
-0.00122123
-0.00167266
-0.00243291
-0.00250425
-0.00209318
-0.000363008
-0.00078983
-0.00108848
-0.000882304
-0.000837034
-0.00097794
-0.000926522
-0.00094574
-0.000911251
-0.00120744
-0.00143071
-0.00105581
-0.00121273
-0.00191183
-0.0018621
-0.0014354
-0.00176181
-0.00252142
-0.00272993
-0.0023662
-0.000387881
-0.000767817
-0.00107108
-0.00089894
-0.000845176
-0.000996006
-0.000997964
-0.0010064
-0.000978599
-0.00123878
-0.00147681
-0.00116803
-0.0012646
-0.00193165
-0.00202406
-0.00166081
-0.00187634
-0.00259626
-0.00291981
-0.00263291
-0.000412609
-0.000746292
-0.00105116
-0.000919109
-0.000856292
-0.00101461
-0.00105637
-0.00106944
-0.00104186
-0.00127103
-0.00152296
-0.00128139
-0.00133082
-0.00195175
-0.0021651
-0.00188941
-0.00201788
-0.00266773
-0.00307452
-0.0028824
-0.000436986
-0.000726486
-0.00102947
-0.000943677
-0.000874066
-0.00103006
-0.00110911
-0.00113533
-0.00110479
-0.00130634
-0.00157059
-0.00139637
-0.00141155
-0.0019756
-0.00228504
-0.00211263
-0.00218345
-0.00274593
-0.00319859
-0.00310596
-0.000460826
-0.000708525
-0.00100692
-0.000972048
-0.000898601
-0.00104209
-0.00115805
-0.00120544
-0.00117275
-0.00134582
-0.00161813
-0.00151114
-0.00150657
-0.00200769
-0.00238648
-0.00232217
-0.00236569
-0.00283801
-0.00330059
-0.00329761
-0.000483761
-0.000693486
-0.000983561
-0.00100256
-0.000931071
-0.00105276
-0.00120136
-0.00127969
-0.00124772
-0.00138923
-0.00166339
-0.00162335
-0.00161412
-0.00205229
-0.00247365
-0.00251296
-0.00255602
-0.00294626
-0.00339112
-0.00345651
-0.000505507
-0.000681937
-0.000959744
-0.00103344
-0.000972889
-0.00106579
-0.00123798
-0.00135374
-0.00132945
-0.00143818
-0.00170694
-0.0017307
-0.00173096
-0.00211171
-0.00255198
-0.00268367
-0.00274675
-0.00306907
-0.00347936
-0.00358831
-0.000525779
-0.000674258
-0.000936515
-0.0010629
-0.00102386
-0.00108465
-0.00126754
-0.00142275
-0.00141711
-0.00149639
-0.00175034
-0.00183034
-0.00185328
-0.0021861
-0.00262743
-0.00283509
-0.00293221
-0.00320325
-0.00357016
-0.00370143
-0.000544358
-0.000670745
-0.000915322
-0.00108932
-0.00108289
-0.00111302
-0.00129091
-0.0014839
-0.00150894
-0.00156618
-0.00179593
-0.0019207
-0.00197648
-0.00227377
-0.0027048
-0.00297023
-0.00310795
-0.0033447
-0.00366512
-0.0038023
-0.000561183
-0.000671596
-0.000897809
-0.00111125
-0.00114726
-0.00115344
-0.00131219
-0.00153552
-0.0016006
-0.00164708
-0.00184841
-0.00200378
-0.00209496
-0.00237076
-0.00278692
-0.00309339
-0.0032714
-0.00348875
-0.00376489
-0.00389466
-0.000576393
-0.000676961
-0.000885847
-0.00112797
-0.00121274
-0.00120722
-0.0013371
-0.00157787
-0.00168733
-0.00173687
-0.00191128
-0.002083
-0.00220604
-0.00247167
-0.00287336
-0.00320837
-0.00342282
-0.00363169
-0.00386987
-0.00398224
-0.000590433
-0.000686401
-0.00088068
-0.00113977
-0.00127515
-0.00127378
-0.00137108
-0.00161272
-0.00176554
-0.00183248
-0.00198516
-0.0021621
-0.00231148
-0.0025721
-0.0029609
-0.0033163
-0.00356325
-0.00377135
-0.00397941
-0.00406949
-0.000603881
-0.000699471
-0.000882906
-0.00114823
-0.0013315
-0.00135062
-0.00141771
-0.00164399
-0.00183319
-0.00192897
-0.00206923
-0.00224434
-0.00241272
-0.00267125
-0.00304766
-0.00341695
-0.00369261
-0.00390555
-0.00409101
-0.00415909
-0.000617438
-0.000715148
-0.000892687
-0.00115628
-0.00138005
-0.0014326
-0.00147849
-0.00167758
-0.00189091
-0.00202034
-0.00216092
-0.00233249
-0.00251126
-0.00276896
-0.00313356
-0.00351049
-0.00381057
-0.00403189
-0.00420119
-0.00425078
-0.00063178
-0.000732724
-0.000909875
-0.00116701
-0.00142049
-0.00151407
-0.00155245
-0.00171952
-0.00194102
-0.00210295
-0.0022551
-0.00242679
-0.00261028
-0.00286466
-0.00321806
-0.00359706
-0.00391706
-0.00414926
-0.00430715
-0.00434206
-0.000647594
-0.000751991
-0.000933347
-0.00118285
-0.00145442
-0.001591
-0.00163712
-0.0017732
-0.00198767
-0.00217633
-0.00234601
-0.00252385
-0.00271247
-0.00296012
-0.00330057
-0.00367686
-0.00401175
-0.00425731
-0.00440757
-0.00442978
-0.000665586
-0.00077267
-0.000961662
-0.00120563
-0.00148479
-0.00166101
-0.00172752
-0.00183928
-0.00203653
-0.00224163
-0.00243057
-0.00261923
-0.00281534
-0.00305776
-0.00338248
-0.00375105
-0.00409444
-0.00435471
-0.00450212
-0.00451199
-0.00068632
-0.00079502
-0.000993271
-0.00123582
-0.00151556
-0.00172368
-0.00181794
-0.0019163
-0.00209233
-0.002301
-0.00250733
-0.00270995
-0.00291505
-0.00315593
-0.00346579
-0.00382192
-0.00416627
-0.00443927
-0.00458974
-0.00458839
-0.000710217
-0.00081955
-0.00102693
-0.00127282
-0.0015504
-0.00178027
-0.00190412
-0.00200127
-0.00215704
-0.0023589
-0.00257594
-0.00279368
-0.00300969
-0.00325055
-0.00354934
-0.0038918
-0.00423021
-0.00451024
-0.00466808
-0.00465919
-0.000737515
-0.000846853
-0.00106233
-0.00131554
-0.00159092
-0.0018334
-0.00198451
-0.00208953
-0.00222968
-0.00241969
-0.00263826
-0.00286764
-0.00309723
-0.00333986
-0.00362914
-0.00395993
-0.00428924
-0.00456929
-0.00473476
-0.0047237
-0.000768363
-0.00087763
-0.00109961
-0.00136234
-0.00163754
-0.00188671
-0.00205978
-0.00217693
-0.0023079
-0.00248459
-0.00269832
-0.00293245
-0.00317364
-0.00342206
-0.00370277
-0.00402255
-0.00434346
-0.00461874
-0.00478856
-0.00477945
-0.0008028
-0.000912545
-0.00113933
-0.00141179
-0.00169
-0.00194274
-0.0021311
-0.00226136
-0.00238926
-0.00255273
-0.00275777
-0.00299069
-0.00323698
-0.00349283
-0.00376892
-0.00407653
-0.00438944
-0.00465873
-0.00482909
-0.0048243
-0.000840883
-0.00095187
-0.00118226
-0.00146322
-0.00174756
-0.00200301
-0.00220059
-0.00234238
-0.00247104
-0.00262328
-0.00281594
-0.00304359
-0.00328943
-0.0035482
-0.00382379
-0.00412054
-0.00442376
-0.00468732
-0.00485579
-0.00485572
-0.00088278
-0.000995719
-0.00122923
-0.00151701
-0.00180893
-0.00206793
-0.00227109
-0.00242137
-0.00255124
-0.00269478
-0.00287289
-0.00308977
-0.00333161
-0.00358765
-0.0038619
-0.0041519
-0.00444478
-0.0047029
-0.00486878
-0.00487187
-0.000928649
-0.00104387
-0.00128065
-0.00157414
-0.00187389
-0.00213716
-0.00234382
-0.00249997
-0.0026301
-0.00276519
-0.00292892
-0.00312923
-0.00336142
-0.00361125
-0.0038791
-0.00416399
-0.00444841
-0.00470109
-0.0048657
-0.00487119
-0.000978729
-0.00109642
-0.00133671
-0.00163488
-0.00194251
-0.00221129
-0.0024199
-0.00257912
-0.00270847
-0.00283399
-0.0029828
-0.00316337
-0.00337766
-0.00361678
-0.00387318
-0.00414871
-0.00442606
-0.00467346
-0.00483885
-0.00484842
-0.00103327
-0.00115339
-0.00139755
-0.00169989
-0.00201489
-0.00229019
-0.00250128
-0.00266082
-0.00278708
-0.00290253
-0.00303402
-0.00319219
-0.00338131
-0.00359999
-0.00383927
-0.00409861
-0.00436633
-0.0046091
-0.00477666
-0.00479393
-0.00109263
-0.00121498
-0.00146276
-0.00176949
-0.00209228
-0.00237449
-0.0025887
-0.00274812
-0.0028682
-0.00297171
-0.00308386
-0.00321522
-0.00337344
-0.00355886
-0.00376903
-0.00400188
-0.00425066
-0.00448875
-0.00466333
-0.00469602
-0.00115678
-0.00128186
-0.00153218
-0.00184375
-0.00217516
-0.00246579
-0.0026844
-0.00284405
-0.00295696
-0.00304479
-0.00313313
-0.00323151
-0.00335265
-0.00349442
-0.00365918
-0.00384845
-0.00405616
-0.00426859
-0.00444454
-0.00451069
-0.00122433
-0.00135098
-0.00160668
-0.00192566
-0.00226457
-0.00256368
-0.00279004
-0.00295375
-0.00306241
-0.00313396
-0.00318881
-0.00323958
-0.00330827
-0.0033997
-0.00351196
-0.00364936
-0.00380179
-0.00395352
-0.00407754
-0.00411786
-0.00129456
-0.00142244
-0.00168684
-0.00201471
-0.00236057
-0.00266792
-0.00290481
-0.00307878
-0.00319339
-0.00326257
-0.00329547
-0.0032751
-0.00321993
-0.00315979
-0.0031225
-0.00315563
-0.00329093
-0.00351132
-0.00376072
-0.003948
-0.00136874
-0.00150288
-0.00177252
-0.00210573
-0.00245677
-0.00277337
-0.00302375
-0.00321496
-0.00334676
-0.00343387
-0.00350908
-0.00356317
-0.00354734
-0.00337838
-0.00301045
-0.0025574
-0.00215738
-0.00186867
-0.00169951
-0.00166846
-0.00144688
-0.00159285
-0.00186913
-0.00220633
-0.00255948
-0.00287891
-0.00313718
-0.00334112
-0.00349005
-0.00357328
-0.00352652
-0.00329291
-0.00297376
-0.0026831
-0.0024601
-0.0022923
-0.00216041
-0.0020476
-0.00196396
-0.00196626
-0.00152646
-0.00166272
-0.00195403
-0.00232018
-0.00270761
-0.00306964
-0.00335873
-0.00352273
-0.00350625
-0.00335028
-0.00315535
-0.00297051
-0.00280708
-0.00263259
-0.00242187
-0.00215866
-0.00185338
-0.00155773
-0.00133815
-0.00128112
-0.00164052
-0.0017858
-0.00201758
-0.00232216
-0.00266315
-0.00297328
-0.00319518
-0.00330936
-0.0033264
-0.00329587
-0.00327293
-0.00326154
-0.00325727
-0.00324149
-0.00314925
-0.00290947
-0.00247216
-0.00189049
-0.00134987
-0.00104491
-0.00170413
-0.00187416
-0.00217573
-0.00252056
-0.00283408
-0.00308184
-0.00324612
-0.00331928
-0.00331208
-0.0032375
-0.00312038
-0.00296361
-0.00274859
-0.00249716
-0.00222527
-0.00194512
-0.00167771
-0.00144791
-0.00130625
-0.0013236
-0.00174212
-0.00189515
-0.00217289
-0.00253118
-0.00290183
-0.00320675
-0.00338785
-0.00341352
-0.00331888
-0.00316247
-0.0029964
-0.00286024
-0.002732
-0.00259799
-0.00245615
-0.00228568
-0.00208399
-0.00186979
-0.00170602
-0.00168173
0.015668
0.00839355
-0.000463541
-0.00669943
-0.00847999
-0.00792102
-0.00728949
-0.00693431
-0.00654078
-0.00603585
-0.00556878
-0.00524619
-0.00511977
-0.00520278
-0.00534816
-0.00535927
-0.00525392
-0.00517216
-0.00516963
-0.00523866
-0.00532693
-0.00536731
-0.00537902
-0.00542491
-0.00551148
-0.00559203
-0.00562009
-0.00560488
-0.00560612
-0.00564582
-0.00568742
-0.00570169
-0.00570445
-0.00572734
-0.00577231
-0.00581529
-0.00585126
-0.00589987
-0.00595873
-0.00600177
-0.00602613
-0.0060558
-0.0060894
-0.00610085
-0.0061013
-0.00612857
-0.00617116
-0.00620341
-0.00623897
-0.00629179
-0.0063364
-0.00635277
-0.00637038
-0.0063993
-0.00641491
-0.00643121
-0.00647088
-0.00650693
-0.00653305
-0.00656156
-0.00658679
-0.00660474
-0.00662233
-0.00664147
-0.00666339
-0.0066869
-0.00671159
-0.00674078
-0.00676989
-0.00679017
-0.00680745
-0.00682303
-0.00684358
-0.00686517
-0.00688897
-0.00691031
-0.00693047
-0.00695097
-0.00697034
-0.00698915
-0.00700561
-0.00701919
-0.0070361
-0.00704961
-0.00706166
-0.00707237
-0.00707887
-0.00708764
-0.00709549
-0.00710032
-0.00710647
-0.00710663
-0.00711053
-0.0071149
-0.00711443
-0.00712236
-0.00713553
-0.00712877
-0.00719281
-0.00727231
0.0147443
0.00822838
-0.000379269
-0.00655181
-0.00839314
-0.00788085
-0.00726726
-0.00692088
-0.00653149
-0.00602823
-0.00556185
-0.0052395
-0.00511323
-0.0051969
-0.00534335
-0.00535525
-0.00525025
-0.00516872
-0.00516643
-0.00523576
-0.00532442
-0.00536507
-0.00537688
-0.00542285
-0.00550958
-0.00559031
-0.00561853
-0.00560338
-0.00560465
-0.00564445
-0.00568619
-0.00570055
-0.00570337
-0.00572629
-0.00577134
-0.00581439
-0.00585041
-0.00589905
-0.00595797
-0.00600107
-0.00602546
-0.00605516
-0.0060888
-0.00610029
-0.00610075
-0.00612803
-0.00617066
-0.00620293
-0.00623851
-0.00629134
-0.00633599
-0.00635238
-0.00636999
-0.00639893
-0.00641457
-0.00643086
-0.00647055
-0.00650662
-0.00653275
-0.00656127
-0.00658652
-0.00660448
-0.00662207
-0.00664122
-0.00666315
-0.00668666
-0.00671136
-0.00674056
-0.00676968
-0.00678997
-0.00680726
-0.00682285
-0.00684341
-0.006865
-0.00688881
-0.00691015
-0.00693031
-0.00695082
-0.00697019
-0.00698902
-0.00700548
-0.00701906
-0.00703598
-0.00704949
-0.00706155
-0.00707226
-0.00707876
-0.00708753
-0.00709538
-0.00710022
-0.00710638
-0.00710654
-0.00711044
-0.00711481
-0.00711434
-0.00712228
-0.00713545
-0.0071287
-0.00719274
-0.00727227
0.0139217
0.00807057
-0.000212971
-0.00628852
-0.00824848
-0.00782537
-0.00723665
-0.00689924
-0.0065163
-0.0060175
-0.00555419
-0.00523365
-0.0051079
-0.00519156
-0.00533831
-0.00535077
-0.00524638
-0.00516538
-0.00516339
-0.00523295
-0.00532196
-0.00536292
-0.00537492
-0.00542104
-0.00550792
-0.00558881
-0.00561714
-0.00560201
-0.00560333
-0.00564323
-0.00568508
-0.00569952
-0.00570238
-0.00572535
-0.00577047
-0.00581359
-0.00584965
-0.00589833
-0.00595731
-0.00600045
-0.00602487
-0.00605459
-0.00608829
-0.00609981
-0.00610025
-0.00612755
-0.00617022
-0.00620251
-0.00623809
-0.00629096
-0.00633564
-0.00635204
-0.00636965
-0.00639861
-0.00641426
-0.00643055
-0.00647026
-0.00650635
-0.00653248
-0.00656102
-0.00658628
-0.00660424
-0.00662184
-0.006641
-0.00666294
-0.00668646
-0.00671117
-0.00674038
-0.0067695
-0.0067898
-0.0068071
-0.00682269
-0.00684325
-0.00686485
-0.00688866
-0.00691002
-0.00693018
-0.0069507
-0.00697007
-0.0069889
-0.00700537
-0.00701895
-0.00703587
-0.00704939
-0.00706145
-0.00707217
-0.00707867
-0.00708744
-0.0070953
-0.00710013
-0.00710629
-0.00710646
-0.00711036
-0.00711474
-0.00711427
-0.00712221
-0.00713539
-0.00712863
-0.00719267
-0.00727225
0.0131422
0.00789562
-7.10421e-06
-0.00595538
-0.00804611
-0.00774069
-0.00718542
-0.00686038
-0.00648865
-0.00599917
-0.00554303
-0.00522738
-0.00510346
-0.00518629
-0.00533175
-0.00534433
-0.00524136
-0.00516169
-0.00516003
-0.00522936
-0.00531846
-0.00535996
-0.00537259
-0.0054191
-0.00550609
-0.00558705
-0.00561554
-0.00560055
-0.00560193
-0.00564188
-0.0056838
-0.00569833
-0.00570127
-0.0057243
-0.0057695
-0.00581269
-0.00584881
-0.00589756
-0.00595661
-0.0059998
-0.00602423
-0.00605399
-0.00608774
-0.00609928
-0.00609972
-0.00612704
-0.00616976
-0.00620207
-0.00623766
-0.00629056
-0.00633529
-0.00635169
-0.0063693
-0.00639829
-0.00641395
-0.00643022
-0.00646996
-0.00650608
-0.00653221
-0.00656076
-0.00658603
-0.00660401
-0.00662161
-0.00664078
-0.00666272
-0.00668625
-0.00671096
-0.00674018
-0.00676932
-0.00678963
-0.00680693
-0.00682253
-0.00684309
-0.0068647
-0.00688852
-0.00690988
-0.00693004
-0.00695057
-0.00696994
-0.00698878
-0.00700525
-0.00701884
-0.00703576
-0.00704928
-0.00706134
-0.00707207
-0.00707857
-0.00708735
-0.00709521
-0.00710005
-0.00710621
-0.00710638
-0.00711028
-0.00711467
-0.0071142
-0.00712214
-0.00713532
-0.00712856
-0.00719258
-0.00727225
0.0123678
0.00769309
0.000208757
-0.00559837
-0.00781723
-0.00764008
-0.00712099
-0.00680696
-0.00644817
-0.00597181
-0.00552671
-0.00521947
-0.00509944
-0.00518084
-0.00532304
-0.00533499
-0.00523455
-0.00515762
-0.00515659
-0.00522491
-0.00531331
-0.00535545
-0.00536936
-0.00541664
-0.00550368
-0.00558461
-0.0056134
-0.00559883
-0.00560038
-0.00564027
-0.00568217
-0.00569683
-0.00569991
-0.00572301
-0.00576823
-0.00581152
-0.00584777
-0.00589662
-0.00595575
-0.005999
-0.00602349
-0.00605329
-0.00608709
-0.00609866
-0.0060991
-0.00612646
-0.00616923
-0.00620156
-0.00623718
-0.00629012
-0.00633489
-0.00635129
-0.0063689
-0.00639792
-0.00641359
-0.00642986
-0.00646964
-0.00650578
-0.00653192
-0.00656048
-0.00658577
-0.00660374
-0.00662136
-0.00664054
-0.00666248
-0.00668603
-0.00671074
-0.00673997
-0.00676913
-0.00678944
-0.00680674
-0.00682234
-0.00684292
-0.00686454
-0.00688836
-0.00690973
-0.0069299
-0.00695043
-0.00696981
-0.00698865
-0.00700513
-0.00701872
-0.00703564
-0.00704917
-0.00706123
-0.00707197
-0.00707847
-0.00708725
-0.00709511
-0.00709996
-0.00710612
-0.00710629
-0.00711019
-0.00711459
-0.00711411
-0.00712206
-0.00713524
-0.00712847
-0.00719247
-0.00727226
0.0116015
0.0074639
0.000417758
-0.00523665
-0.00757574
-0.00753338
-0.00705321
-0.00674709
-0.00639981
-0.00593778
-0.00550601
-0.00520975
-0.00509528
-0.00517489
-0.00531221
-0.0053229
-0.00522597
-0.00515324
-0.00515339
-0.00521999
-0.0053067
-0.0053493
-0.00536502
-0.0054134
-0.00550031
-0.00558101
-0.00561037
-0.00559671
-0.00559864
-0.00563834
-0.0056801
-0.00569498
-0.00569831
-0.0057214
-0.00576655
-0.00580995
-0.00584643
-0.00589544
-0.00595464
-0.00599799
-0.00602259
-0.00605245
-0.00608628
-0.00609789
-0.00609836
-0.00612575
-0.00616857
-0.00620095
-0.00623662
-0.0062896
-0.0063344
-0.00635082
-0.00636844
-0.00639749
-0.00641317
-0.00642945
-0.00646927
-0.00650543
-0.00653158
-0.00656017
-0.00658547
-0.00660345
-0.00662107
-0.00664026
-0.00666222
-0.00668577
-0.0067105
-0.00673974
-0.00676891
-0.00678923
-0.00680654
-0.00682214
-0.00684272
-0.00686435
-0.00688818
-0.00690956
-0.00692974
-0.00695027
-0.00696966
-0.00698851
-0.00700499
-0.00701859
-0.00703551
-0.00704905
-0.00706112
-0.00707185
-0.00707836
-0.00708714
-0.00709501
-0.00709986
-0.00710602
-0.0071062
-0.0071101
-0.00711451
-0.00711403
-0.00712198
-0.00713516
-0.00712838
-0.00719233
-0.00727229
0.0108531
0.00720802
0.00060957
-0.0048764
-0.00732301
-0.00742117
-0.00698469
-0.00668443
-0.0063466
-0.00589906
-0.00548197
-0.00519828
-0.00509047
-0.0051682
-0.00529984
-0.00530889
-0.00521609
-0.00514857
-0.00515046
-0.00521498
-0.00529925
-0.00534208
-0.00535985
-0.00540937
-0.00549577
-0.00557594
-0.00560612
-0.00559397
-0.00559659
-0.00563598
-0.0056775
-0.00569278
-0.00569655
-0.00571956
-0.00576443
-0.00580789
-0.00584468
-0.00589386
-0.00595314
-0.00599666
-0.00602148
-0.00605143
-0.00608527
-0.00609694
-0.00609747
-0.00612488
-0.00616773
-0.0062002
-0.00623595
-0.00628898
-0.00633381
-0.00635026
-0.0063679
-0.00639696
-0.00641266
-0.00642898
-0.00646883
-0.00650503
-0.0065312
-0.00655981
-0.00658512
-0.00660311
-0.00662074
-0.00663995
-0.00666192
-0.00668548
-0.00671022
-0.00673948
-0.00676867
-0.006789
-0.00680631
-0.00682192
-0.0068425
-0.00686415
-0.00688798
-0.00690937
-0.00692955
-0.0069501
-0.00696949
-0.00698835
-0.00700484
-0.00701844
-0.00703537
-0.00704892
-0.00706098
-0.00707173
-0.00707823
-0.00708703
-0.0070949
-0.00709975
-0.00710592
-0.0071061
-0.00711
-0.00711441
-0.00711393
-0.00712188
-0.00713506
-0.00712826
-0.00719216
-0.00727233
0.0101298
0.00692401
0.000777682
-0.00451872
-0.0070558
-0.00730022
-0.00691494
-0.00662011
-0.00628976
-0.00585654
-0.00545505
-0.00518503
-0.00508473
-0.00516084
-0.0052865
-0.00529373
-0.00520534
-0.00514356
-0.00514754
-0.00520993
-0.0052915
-0.0053345
-0.00535439
-0.00540485
-0.0054902
-0.00556941
-0.00560057
-0.00559044
-0.00559405
-0.00563308
-0.00567431
-0.0056902
-0.00569468
-0.00571762
-0.005762
-0.0058054
-0.00584252
-0.00589185
-0.00595111
-0.00599487
-0.00602008
-0.00605019
-0.00608403
-0.00609581
-0.00609645
-0.00612382
-0.00616664
-0.00619924
-0.00623513
-0.00628819
-0.00633308
-0.00634961
-0.00636726
-0.00639631
-0.00641204
-0.00642841
-0.00646831
-0.00650453
-0.00653075
-0.0065594
-0.00658472
-0.00660272
-0.00662037
-0.00663958
-0.00666156
-0.00668514
-0.0067099
-0.00673917
-0.00676838
-0.00678872
-0.00680604
-0.00682165
-0.00684225
-0.0068639
-0.00688775
-0.00690915
-0.00692934
-0.0069499
-0.0069693
-0.00698817
-0.00700467
-0.00701827
-0.00703521
-0.00704877
-0.00706084
-0.00707159
-0.0070781
-0.0070869
-0.00709477
-0.00709963
-0.0071058
-0.00710599
-0.00710988
-0.00711431
-0.00711382
-0.00712177
-0.00713495
-0.00712812
-0.00719194
-0.00727236
0.00943521
0.00661394
0.000920277
-0.0041627
-0.00677111
-0.00716791
-0.00684387
-0.00655539
-0.00623028
-0.00581064
-0.0054253
-0.00516993
-0.00507805
-0.00515294
-0.00527253
-0.00527778
-0.00519389