/*--------------------------------*- C++ -*----------------------------------*\
| =========                 |                                                 |
| \\      /  F ield         | OpenFOAM: The Open Source CFD Toolbox           |
|  \\    /   O peration     | Version:  2506                                  |
|   \\  /    A nd           | Website:  www.openfoam.com                      |
|    \\/     M anipulation  |                                                 |
\*---------------------------------------------------------------------------*/
FoamFile
{
    version     2.0;
    format      ascii;
    arch        "LSB;label=32;scalar=64";
    class       surfaceScalarField;
    location    "2.25";
    object      phi;
}
// * * * * * * * * * * * * * * * * * * * * * * * * * * * * * * * * * * * * * //

dimensions      [0 3 -1 0 0 0 0];

oriented        oriented;

internalField   nonuniform List<scalar> 
19000
(
1.17142e-06
1.5341e-07
1.16901e-06
-3.7695e-07
1.18999e-06
3.85669e-07
1.13204e-06
3.28766e-07
1.12153e-06
-2.12016e-07
1.19016e-06
-5.015e-07
1.19482e-06
-8.12529e-08
1.15266e-06
-2.46497e-07
1.1721e-06
7.60248e-07
1.11849e-06
8.89301e-08
1.13487e-06
4.49191e-07
1.11203e-06
1.67092e-07
1.12197e-06
-2.18528e-07
1.13205e-06
-1.45654e-07
1.13542e-06
-3.24338e-07
1.14214e-06
-1.94489e-07
1.15418e-06
-2.64399e-07
1.15247e-06
-1.16681e-07
1.15671e-06
-1.22802e-07
-3.89667e-08
1.12419e-06
1.22548e-06
1.52188e-07
1.22335e-06
-3.74821e-07
1.24248e-06
3.66539e-07
1.19139e-06
3.79855e-07
1.17806e-06
-1.98682e-07
1.24279e-06
-5.66232e-07
1.24849e-06
-8.69535e-08
1.20896e-06
-2.06964e-07
1.22117e-06
7.48035e-07
1.1763e-06
1.33806e-07
1.17923e-06
4.46256e-07
1.17713e-06
1.69199e-07
1.17574e-06
-2.17137e-07
1.1976e-06
-1.67518e-07
1.19015e-06
-3.16889e-07
1.20986e-06
-2.14201e-07
1.20409e-06
-2.58621e-07
1.22295e-06
-1.35547e-07
1.20157e-06
-1.01416e-07
-4.44775e-08
1.20708e-06
1.28163e-06
1.53346e-07
1.28028e-06
-3.73474e-07
1.29471e-06
3.52112e-07
1.25722e-06
4.17341e-07
1.23937e-06
-1.80838e-07
1.29618e-06
-6.23033e-07
1.30412e-06
-9.48943e-08
1.26918e-06
-1.72026e-07
1.27203e-06
7.45186e-07
1.2411e-06
1.64735e-07
1.23211e-06
4.55241e-07
1.24601e-06
1.55297e-07
1.23735e-06
-2.08476e-07
1.26004e-06
-1.90205e-07
1.25157e-06
-3.08416e-07
1.2679e-06
-2.30538e-07
1.26359e-06
-2.5431e-07
1.27517e-06
-1.47128e-07
1.26374e-06
-8.99783e-08
-3.61804e-08
1.25544e-06
1.34073e-06
1.56723e-07
1.34039e-06
-3.73138e-07
1.34898e-06
3.43522e-07
1.32702e-06
4.393e-07
1.30608e-06
-1.59893e-07
1.35169e-06
-6.68646e-07
1.3622e-06
-1.05402e-07
1.33304e-06
-1.42867e-07
1.32867e-06
7.49555e-07
1.30985e-06
1.83549e-07
1.29752e-06
4.67578e-07
1.31549e-06
1.37321e-07
1.30738e-06
-2.00367e-07
1.3223e-06
-2.0512e-07
1.31894e-06
-3.05052e-07
1.3282e-06
-2.39807e-07
1.32741e-06
-2.53512e-07
1.33406e-06
-1.53777e-07
1.32734e-06
-8.32631e-08
-2.6628e-08
1.31779e-06
1.40369e-06
1.61387e-07
1.40377e-06
-3.73217e-07
1.40724e-06
3.40055e-07
1.3988e-06
4.47741e-07
1.37796e-06
-1.39061e-07
1.41032e-06
-7.01e-07
1.42317e-06
-1.18254e-07
1.39961e-06
-1.19304e-07
1.39216e-06
7.57005e-07
1.38105e-06
1.94657e-07
1.3723e-06
4.76333e-07
1.3875e-06
1.22119e-07
1.38198e-06
-1.94851e-07
1.3896e-06
-2.12742e-07
1.38825e-06
-3.03704e-07
1.39445e-06
-2.46003e-07
1.39315e-06
-2.52208e-07
1.39881e-06
-1.59438e-07
1.39367e-06
-7.81213e-08
-1.80475e-08
1.38509e-06
1.47106e-06
1.66002e-07
1.47051e-06
-3.72667e-07
1.47084e-06
3.39722e-07
1.47196e-06
4.46625e-07
1.45418e-06
-1.21282e-07
1.47301e-06
-7.19832e-07
1.48666e-06
-1.31897e-07
1.46843e-06
-1.01077e-07
1.46181e-06
7.63623e-07
1.45518e-06
2.01284e-07
1.45169e-06
4.79823e-07
1.4631e-06
1.10712e-07
1.45859e-06
-1.90336e-07
1.46174e-06
-2.15893e-07
1.45911e-06
-3.01074e-07
1.46368e-06
-2.50579e-07
1.46125e-06
-2.49772e-07
1.46553e-06
-1.6372e-07
1.46226e-06
-7.48485e-08
-9.92879e-09
1.45414e-06
1.54278e-06
1.69438e-07
1.54081e-06
-3.70694e-07
1.54012e-06
3.40406e-07
1.54702e-06
4.39724e-07
1.5335e-06
-1.07756e-07
1.54042e-06
-7.26753e-07
1.55242e-06
-1.439e-07
1.53935e-06
-8.80035e-08
1.53626e-06
7.66715e-07
1.53267e-06
2.04867e-07
1.53335e-06
4.79144e-07
1.54183e-06
1.02232e-07
1.53697e-06
-1.85478e-07
1.53726e-06
-2.16182e-07
1.53258e-06
-2.96388e-07
1.53497e-06
-2.52976e-07
1.53183e-06
-2.46627e-07
1.53396e-06
-1.65847e-07
1.53218e-06
-7.30703e-08
-2.34952e-09
1.5246e-06
1.61835e-06
1.71221e-07
1.61484e-06
-3.67184e-07
1.61452e-06
3.40724e-07
1.62456e-06
4.29683e-07
1.61488e-06
-9.80739e-08
1.61267e-06
-7.24544e-07
1.62098e-06
-1.52216e-07
1.61252e-06
-7.95435e-08
1.61422e-06
7.65017e-07
1.61315e-06
2.05938e-07
1.61685e-06
4.75447e-07
1.62306e-06
9.60195e-08
1.61758e-06
-1.79994e-07
1.61566e-06
-2.14264e-07
1.60936e-06
-2.90093e-07
1.60911e-06
-2.5272e-07
1.60528e-06
-2.42804e-07
1.60496e-06
-1.65518e-07
1.60386e-06
-7.19715e-08
4.644e-09
1.59686e-06
1.69724e-06
1.71552e-07
1.69266e-06
-3.62596e-07
1.69324e-06
3.4014e-07
1.70483e-06
4.18093e-07
1.69791e-06
-9.11492e-08
1.68952e-06
-7.16156e-07
1.69333e-06
-1.56027e-07
1.68846e-06
-7.46748e-08
1.69497e-06
7.5851e-07
1.696e-06
2.04907e-07
1.70221e-06
4.69239e-07
1.70647e-06
9.17551e-08
1.70063e-06
-1.74152e-07
1.69689e-06
-2.10525e-07
1.68969e-06
-2.82895e-07
1.68681e-06
-2.4984e-07
1.68225e-06
-2.3824e-07
1.67939e-06
-1.62664e-07
1.67821e-06
-7.07872e-08
1.11419e-08
1.67171e-06
1.77931e-06
1.70964e-07
1.77425e-06
-3.5754e-07
1.77577e-06
3.38624e-07
1.78802e-06
4.05846e-07
1.7828e-06
-8.59291e-08
1.77064e-06
-7.03996e-07
1.77032e-06
-1.55707e-07
1.76782e-06
-7.21807e-08
1.7784e-06
7.47935e-07
1.78096e-06
2.02341e-07
1.78948e-06
4.60721e-07
1.79204e-06
8.91922e-08
1.78625e-06
-1.68358e-07
1.78101e-06
-2.05283e-07
1.77358e-06
-2.75468e-07
1.7684e-06
-2.44658e-07
1.76316e-06
-2.33003e-07
1.75797e-06
-1.57471e-07
1.75605e-06
-6.88674e-08
1.71984e-08
1.74999e-06
1.86477e-06
1.69946e-07
1.85964e-06
-3.52417e-07
1.86196e-06
3.3631e-07
1.87442e-06
3.93385e-07
1.87012e-06
-8.16306e-08
1.8558e-06
-6.89677e-07
1.8524e-06
-1.52305e-07
1.85118e-06
-7.09663e-08
1.86487e-06
7.34252e-07
1.8683e-06
1.98907e-07
1.8789e-06
4.50119e-07
1.88002e-06
8.80791e-08
1.87464e-06
-1.62978e-07
1.86813e-06
-1.98778e-07
1.86099e-06
-2.6833e-07
1.85396e-06
-2.37629e-07
1.8482e-06
-2.27239e-07
1.84116e-06
-1.50431e-07
1.83799e-06
-6.56987e-08
2.27514e-08
1.83244e-06
1.95401e-06
1.68778e-07
1.94892e-06
-3.47331e-07
1.9519e-06
3.33333e-07
1.96444e-06
3.80839e-07
1.96054e-06
-7.7723e-08
1.94497e-06
-6.74114e-07
1.93969e-06
-1.47021e-07
1.93892e-06
-7.01966e-08
1.95486e-06
7.18311e-07
1.95854e-06
1.95229e-07
1.97093e-06
4.37731e-07
1.97082e-06
8.81882e-08
1.96612e-06
-1.58276e-07
1.9585e-06
-1.91163e-07
1.95196e-06
-2.61788e-07
1.94358e-06
-2.29246e-07
1.93736e-06
-2.21027e-07
1.92919e-06
-1.42256e-07
1.92444e-06
-6.09526e-08
2.76447e-08
1.91955e-06
2.04742e-06
1.67552e-07
2.04228e-06
-3.42192e-07
2.04582e-06
3.29794e-07
2.05849e-06
3.68163e-07
2.05465e-06
-7.38767e-08
2.03826e-06
-6.5773e-07
2.03212e-06
-1.40879e-07
2.03122e-06
-6.9294e-08
2.0488e-06
7.00731e-07
2.05224e-06
1.91787e-07
2.06612e-06
4.23846e-07
2.06497e-06
8.93409e-08
2.06111e-06
-1.5442e-07
2.05248e-06
-1.82534e-07
2.04662e-06
-2.5592e-07
2.03737e-06
-2.19997e-07
2.03064e-06
-2.14299e-07
2.02211e-06
-1.33725e-07
2.0157e-06
-5.45472e-08
3.17562e-08
2.01159e-06
2.14529e-06
1.66261e-07
2.13996e-06
-3.36862e-07
2.14399e-06
3.25763e-07
2.15688e-06
3.55276e-07
2.15294e-06
-6.99351e-08
2.13587e-06
-6.40659e-07
2.1296e-06
-1.34611e-07
2.12819e-06
-6.78893e-08
2.14702e-06
6.81903e-07
2.14991e-06
1.88903e-07
2.16508e-06
4.0867e-07
2.16301e-06
9.1412e-08
2.16007e-06
-1.51481e-07
2.15053e-06
-1.72987e-07
2.14522e-06
-2.50611e-07
2.13556e-06
-2.10343e-07
2.12809e-06
-2.06828e-07
2.11992e-06
-1.25551e-07
2.11205e-06
-4.66759e-08
3.51476e-08
2.10865e-06
2.24788e-06
1.64872e-07
2.24225e-06
-3.31235e-07
2.24672e-06
3.21293e-07
2.25985e-06
3.4215e-07
2.2558e-06
-6.5887e-08
2.23804e-06
-6.22894e-07
2.2321e-06
-1.28672e-07
2.22997e-06
-6.57671e-08
2.24985e-06
6.62022e-07
2.25199e-06
1.86766e-07
2.26833e-06
3.92329e-07
2.26543e-06
9.43183e-08
2.2634e-06
-1.49452e-07
2.25307e-06
-1.62662e-07
2.24805e-06
-2.45586e-07
2.23843e-06
-2.00729e-07
2.22989e-06
-1.98283e-07
2.2226e-06
-1.18267e-07
2.21371e-06
-3.77792e-08
3.81301e-08
2.21072e-06
2.35539e-06
1.63355e-07
2.34942e-06
-3.25262e-07
2.3543e-06
3.16415e-07
2.3676e-06
3.28843e-07
2.36354e-06
-6.18242e-08
2.34503e-06
-6.04384e-07
2.33967e-06
-1.23308e-07
2.33671e-06
-6.28117e-08
2.35759e-06
6.41145e-07
2.35888e-06
1.85475e-07
2.37631e-06
3.74901e-07
2.37264e-06
9.79926e-08
2.37142e-06
-1.48235e-07
2.36053e-06
-1.51774e-07
2.35539e-06
-2.40449e-07
2.34626e-06
-1.91596e-07
2.33632e-06
-1.88342e-07
2.33019e-06
-1.12138e-07
2.32083e-06
-2.84205e-08
4.11384e-08
2.31782e-06
2.46806e-06
1.6169e-07
2.46173e-06
-3.18932e-07
2.46701e-06
3.11139e-07
2.48037e-06
3.15478e-07
2.47644e-06
-5.78921e-08
2.45712e-06
-5.8507e-07
2.45246e-06
-1.18648e-07
2.44862e-06
-5.89642e-08
2.47051e-06
6.19252e-07
2.47092e-06
1.85061e-07
2.48936e-06
3.56469e-07
2.485e-06
1.02346e-07
2.48441e-06
-1.47643e-07
2.47326e-06
-1.40629e-07
2.46755e-06
-2.34736e-07
2.4593e-06
-1.83342e-07
2.4478e-06
-1.76841e-07
2.44272e-06
-1.0706e-07
2.43353e-06
-1.92283e-08
4.45778e-08
2.43009e-06
2.58612e-06
1.5986e-07
2.57944e-06
-3.12245e-07
2.58513e-06
3.05447e-07
2.59839e-06
3.02215e-07
2.59475e-06
-5.42513e-08
2.57458e-06
-5.64895e-07
2.57069e-06
-1.1476e-07
2.56592e-06
-5.41956e-08
2.58886e-06
5.96312e-07
2.58842e-06
1.85499e-07
2.60774e-06
3.3715e-07
2.60285e-06
1.07238e-07
2.60261e-06
-1.474e-07
2.59159e-06
-1.29613e-07
2.58481e-06
-2.27955e-07
2.57774e-06
-1.7627e-07
2.56478e-06
-1.63886e-07
2.56026e-06
-1.02533e-07
2.55192e-06
-1.08958e-08
4.87205e-08
2.54778e-06
2.70984e-06
1.5785e-07
2.70279e-06
-3.05199e-07
2.70894e-06
2.99298e-07
2.72193e-06
2.89223e-07
2.71874e-06
-5.1056e-08
2.69765e-06
-5.43809e-07
2.69459e-06
-1.11694e-07
2.68889e-06
-4.84974e-08
2.71288e-06
5.72319e-07
2.71167e-06
1.86709e-07
2.7317e-06
3.17121e-07
2.72648e-06
1.12455e-07
2.72624e-06
-1.47156e-07
2.71579e-06
-1.19164e-07
2.70748e-06
-2.19644e-07
2.70174e-06
-1.70531e-07
2.6877e-06
-1.49845e-07
2.68301e-06
-9.78417e-08
2.67616e-06
-4.04496e-09
5.36209e-08
2.67126e-06
2.83948e-06
1.55643e-07
2.83205e-06
-2.97777e-07
2.83872e-06
2.92628e-07
2.85128e-06
2.76664e-07
2.84867e-06
-4.84467e-08
2.82663e-06
-5.21763e-07
2.82442e-06
-1.09486e-07
2.81781e-06
-4.18883e-08
2.8428e-06
5.4733e-07
2.84096e-06
1.88548e-07
2.86145e-06
2.9663e-07
2.85619e-06
1.17712e-07
2.85556e-06
-1.46521e-07
2.84608e-06
-1.09684e-07
2.83593e-06
-2.09496e-07
2.83144e-06
-1.66037e-07
2.81688e-06
-1.35282e-07
2.81133e-06
-9.2301e-08
2.80634e-06
9.46349e-10
5.9078e-08
2.80089e-06
2.97532e-06
1.53219e-07
2.96749e-06
-2.89945e-07
2.97476e-06
2.85358e-07
2.98673e-06
2.64696e-07
2.98483e-06
-4.65487e-08
2.96178e-06
-4.98715e-07
2.96045e-06
-1.08157e-07
2.95299e-06
-3.44286e-08
2.97885e-06
5.21472e-07
2.97659e-06
1.90809e-07
2.99723e-06
2.75991e-07
2.99226e-06
1.2268e-07
2.99085e-06
-1.45116e-07
2.98266e-06
-1.01491e-07
2.97059e-06
-1.97425e-07
2.967e-06
-1.62446e-07
2.95258e-06
-1.20858e-07
2.94572e-06
-8.54454e-08
2.94259e-06
4.07468e-09
6.46436e-08
2.93703e-06
3.11767e-06
1.50556e-07
3.10938e-06
-2.81654e-07
3.11734e-06
2.77396e-07
3.12857e-06
2.53464e-07
3.12749e-06
-4.54686e-08
3.10342e-06
-4.74646e-07
3.10296e-06
-1.07695e-07
3.09476e-06
-2.62308e-08
3.12128e-06
4.94952e-07
3.11888e-06
1.93211e-07
3.13929e-06
2.55579e-07
3.13496e-06
1.27017e-07
3.13245e-06
-1.42609e-07
3.12573e-06
-9.47748e-08
3.11188e-06
-1.83568e-07
3.10865e-06
-1.5922e-07
3.095e-06
-1.07211e-07
3.08666e-06
-7.71056e-08
3.08505e-06
5.68792e-09
6.97208e-08
3.07997e-06
3.26684e-06
1.47629e-07
3.25802e-06
-2.72839e-07
3.26677e-06
2.68644e-07
3.27714e-06
2.431e-07
3.27695e-06
-4.52842e-08
3.25188e-06
-4.49574e-07
3.25223e-06
-1.08039e-07
3.24347e-06
-1.74704e-08
3.27036e-06
4.68055e-07
3.26816e-06
1.95418e-07
3.28794e-06
2.35793e-07
3.28455e-06
1.30411e-07
3.2807e-06
-1.38762e-07
3.27549e-06
-8.95645e-08
3.26017e-06
-1.6825e-07
3.2567e-06
-1.5575e-07
3.24434e-06
-9.48467e-08
3.23462e-06
-6.7387e-08
3.23394e-06
6.36319e-09
7.37023e-08
3.22996e-06
3.42315e-06
1.44411e-07
3.41374e-06
-2.63428e-07
3.42338e-06
2.59e-07
3.43277e-06
2.33715e-07
3.43352e-06
-4.60416e-08
3.40752e-06
-4.23567e-07
3.40855e-06
-1.09068e-07
3.39946e-06
-8.3896e-09
3.42638e-06
4.41137e-07
3.42475e-06
1.97046e-07
3.44353e-06
2.17018e-07
3.4413e-06
1.32646e-07
3.43601e-06
-1.33475e-07
3.43217e-06
-8.57302e-08
3.41583e-06
-1.51901e-07
3.41155e-06
-1.51476e-07
3.4008e-06
-8.40977e-08
3.38998e-06
-5.65672e-08
3.38961e-06
6.73981e-09
7.61182e-08
3.38719e-06
3.58695e-06
1.40875e-07
3.57686e-06
-2.53342e-07
3.58749e-06
2.48369e-07
3.59581e-06
2.25392e-07
3.59752e-06
-4.77459e-08
3.57071e-06
-3.96753e-07
3.57222e-06
-1.10587e-07
3.56313e-06
7.05168e-10
3.58967e-06
4.14597e-07
3.589e-06
1.97712e-07
3.60646e-06
1.99566e-07
3.60546e-06
1.33643e-07
3.59878e-06
-1.26793e-07
3.59607e-06
-8.30256e-08
3.57915e-06
-1.34983e-07
3.57366e-06
-1.45985e-07
3.56465e-06
-7.50825e-08
3.55312e-06
-4.50433e-08
3.55243e-06
7.43686e-09
7.66989e-08
3.55185e-06
3.75859e-06
1.36995e-07
3.74774e-06
-2.42499e-07
3.75944e-06
2.3667e-07
3.76666e-06
2.18172e-07
3.76927e-06
-5.03492e-08
3.74185e-06
-3.6934e-07
3.74359e-06
-1.12323e-07
3.73485e-06
9.44654e-09
3.76058e-06
3.88868e-07
3.76122e-06
1.97074e-07
3.77716e-06
1.83626e-07
3.77731e-06
1.33487e-07
3.76941e-06
-1.18893e-07
3.76751e-06
-8.11244e-08
3.75049e-06
-1.17962e-07
3.7435e-06
-1.38997e-07
3.73619e-06
-6.77734e-08
3.72441e-06
-3.32616e-08
3.72287e-06
8.97868e-09
7.54473e-08
3.72412e-06
3.93843e-06
1.32749e-07
3.92676e-06
-2.30829e-07
3.93959e-06
2.23848e-07
3.94572e-06
2.12041e-07
3.9491e-06
-5.37363e-08
3.92138e-06
-3.41615e-07
3.92299e-06
-1.13935e-07
3.91501e-06
1.74259e-08
3.93952e-06
3.6436e-07
3.94167e-06
1.9492e-07
3.95609e-06
1.69211e-07
3.95719e-06
1.32386e-07
3.94828e-06
-1.09989e-07
3.94688e-06
-7.97151e-08
3.93016e-06
-1.01247e-07
3.92152e-06
-1.3036e-07
3.91574e-06
-6.19948e-08
3.90424e-06
-2.1755e-08
3.90142e-06
1.17957e-08
7.26554e-08
3.90421e-06
4.12688e-06
1.28124e-07
4.11433e-06
-2.18281e-07
4.12829e-06
2.0989e-07
4.1334e-06
2.06925e-07
4.13739e-06
-5.77202e-08
4.10971e-06
-3.13942e-07
4.11081e-06
-1.15032e-07
4.10402e-06
2.42115e-08
4.12694e-06
3.41442e-07
4.13065e-06
1.91214e-07
4.14371e-06
1.56148e-07
4.14547e-06
1.30629e-07
4.13575e-06
-1.00275e-07
4.13459e-06
-7.85482e-08
4.11851e-06
-8.51744e-08
4.10821e-06
-1.20051e-07
4.1036e-06
-5.7391e-08
4.093e-06
-1.11558e-08
4.08866e-06
1.61414e-08
6.89469e-08
4.09237e-06
4.32431e-06
1.23111e-07
4.31087e-06
-2.04835e-07
4.32592e-06
1.9484e-07
4.33017e-06
2.02675e-07
4.33448e-06
-6.20298e-08
4.30729e-06
-2.86752e-07
4.30746e-06
-1.15204e-07
4.30228e-06
2.9391e-08
4.32338e-06
3.20347e-07
4.32844e-06
1.86147e-07
4.34045e-06
1.44143e-07
4.3426e-06
1.28478e-07
4.33218e-06
-8.98543e-08
4.33109e-06
-7.74597e-08
4.31591e-06
-6.99969e-08
4.30401e-06
-1.08149e-07
4.30016e-06
-5.35394e-08
4.29101e-06
-2.00991e-09
4.28523e-06
2.19204e-08
6.52232e-08
4.28896e-06
4.53117e-06
1.17715e-07
4.51685e-06
-1.90518e-07
4.53288e-06
1.78814e-07
4.53648e-06
1.99072e-07
4.54078e-06
-6.63222e-08
4.51454e-06
-2.6052e-07
4.5134e-06
-1.1406e-07
4.51017e-06
3.26183e-08
4.52939e-06
3.01132e-07
4.53544e-06
1.80094e-07
4.54668e-06
1.32901e-07
4.54906e-06
1.26102e-07
4.53795e-06
-7.87437e-08
4.53681e-06
-7.63186e-08
4.52272e-06
-5.59112e-08
4.50946e-06
-9.48866e-08
4.50584e-06
-4.99252e-08
4.49851e-06
5.32237e-09
4.4918e-06
2.86306e-08
6.24511e-08
4.49457e-06
4.74788e-06
1.11949e-07
4.73278e-06
-1.75418e-07
4.74958e-06
1.62013e-07
4.75284e-06
1.95816e-07
4.7567e-06
-7.01874e-08
4.73192e-06
-2.35736e-07
4.72913e-06
-1.1127e-07
4.728e-06
3.37526e-08
4.74555e-06
2.8358e-07
4.75208e-06
1.73564e-07
4.76282e-06
1.22161e-07
4.76533e-06
1.23591e-07
4.7535e-06
-6.69134e-08
4.75212e-06
-7.49455e-08
4.73936e-06
-4.31508e-08
4.72502e-06
-8.05412e-08
4.72121e-06
-4.61175e-08
4.71573e-06
1.07992e-08
4.70886e-06
3.55014e-08
6.12933e-08
4.71002e-06
4.97491e-06
1.0584e-07
4.95917e-06
-1.5968e-07
4.97646e-06
1.44725e-07
4.97974e-06
1.92533e-07
4.98273e-06
-7.31747e-08
4.95987e-06
-2.12878e-07
4.95521e-06
-1.06613e-07
4.95599e-06
3.29785e-08
4.97237e-06
2.67192e-07
4.9789e-06
1.67041e-07
4.98925e-06
1.1181e-07
4.99188e-06
1.20961e-07
4.9793e-06
-5.43345e-08
4.97744e-06
-7.30844e-08
4.96628e-06
-3.19947e-08
4.9512e-06
-6.54554e-08
4.94685e-06
-4.17742e-08
4.94303e-06
1.46199e-08
4.93674e-06
4.17903e-08
6.18573e-08
4.93618e-06
5.21273e-06
9.94293e-08
5.19655e-06
-1.43501e-07
5.21396e-06
1.27313e-07
5.2177e-06
1.88789e-07
5.21939e-06
-7.48589e-08
5.19881e-06
-1.923e-07
5.19228e-06
-1.00084e-07
5.19449e-06
3.07717e-08
5.2103e-06
2.51384e-07
5.21648e-06
1.60857e-07
5.22637e-06
1.01922e-07
5.22915e-06
1.18177e-07
5.21583e-06
-4.10158e-08
5.21322e-06
-7.04671e-08
5.20386e-06
-2.26422e-08
5.1885e-06
-5.00938e-08
5.18341e-06
-3.66824e-08
5.18085e-06
1.71798e-08
5.17563e-06
4.70057e-08
6.36818e-08
5.17381e-06
5.46185e-06
9.27692e-08
5.44548e-06
-1.27129e-07
5.46258e-06
1.10208e-07
5.46728e-06
1.84094e-07
5.4673e-06
-7.48825e-08
5.44911e-06
-1.74113e-07
5.44104e-06
-9.20134e-08
5.44407e-06
2.77436e-08
5.4597e-06
2.35758e-07
5.46539e-06
1.55162e-07
5.47458e-06
9.27313e-08
5.47752e-06
1.15238e-07
5.46361e-06
-2.71037e-08
5.45998e-06
-6.68386e-08
5.4526e-06
-1.52579e-08
5.43745e-06
-3.49443e-08
5.43148e-06
-3.0716e-08
5.4298e-06
1.88668e-08
5.42579e-06
5.10082e-08
6.60522e-08
5.42342e-06
5.7228e-06
8.59251e-08
5.70652e-06
-1.10846e-07
5.72285e-06
9.38803e-08
5.729e-06
1.77941e-07
5.72718e-06
-7.30602e-08
5.71118e-06
-1.58111e-07
5.70212e-06
-8.29566e-08
5.70537e-06
2.44948e-08
5.72095e-06
2.20173e-07
5.72608e-06
1.50039e-07
5.73424e-06
8.45646e-08
5.73736e-06
1.12123e-07
5.72318e-06
-1.29306e-08
5.7184e-06
-6.20552e-08
5.71303e-06
-9.88377e-09
5.69856e-06
-2.04753e-08
5.69162e-06
-2.37777e-08
5.69054e-06
1.99461e-08
5.68765e-06
5.39023e-08
6.83735e-08
5.68532e-06
5.99615e-06
7.8969e-08
5.98026e-06
-9.49601e-08
5.99536e-06
7.87879e-08
6.00332e-06
1.69974e-07
5.99979e-06
-6.95254e-08
5.98546e-06
-1.43782e-07
5.97594e-06
-7.34366e-08
5.97893e-06
2.15051e-08
5.99427e-06
2.04836e-07
5.99871e-06
1.45592e-07
6.00554e-06
7.77397e-08
6.00907e-06
1.08593e-07
5.99524e-06
9.00905e-10
5.98926e-06
-5.60764e-08
5.98568e-06
-6.30525e-09
5.97236e-06
-7.16021e-09
5.96441e-06
-1.5819e-08
5.9637e-06
2.06478e-08
5.96181e-06
5.57929e-08
7.03671e-08
5.95982e-06
6.28248e-06
7.19736e-08
6.26729e-06
-7.9765e-08
6.28083e-06
6.52488e-08
6.29053e-06
1.60266e-07
6.28584e-06
-6.48302e-08
6.27261e-06
-1.30556e-07
6.2629e-06
-6.37176e-08
6.26514e-06
1.92634e-08
6.27971e-06
1.90258e-07
6.28325e-06
1.42058e-07
6.28879e-06
7.21989e-08
6.29336e-06
1.04023e-07
6.28052e-06
1.37377e-08
6.27333e-06
-4.88797e-08
6.27113e-06
-4.11147e-09
6.25938e-06
4.59036e-09
6.2505e-06
-6.9384e-09
6.24985e-06
2.13005e-08
6.24897e-06
5.66671e-08
7.19859e-08
6.24736e-06
6.58243e-06
6.50096e-08
6.56819e-06
-6.55257e-08
6.58004e-06
5.33983e-08
6.59108e-06
1.49229e-07
6.58588e-06
-5.96298e-08
6.57349e-06
-1.18167e-07
6.56346e-06
-5.36894e-08
6.5644e-06
1.83248e-08
6.57818e-06
1.76478e-07
6.58108e-06
1.3916e-07
6.58541e-06
6.78708e-08
6.59114e-06
9.82957e-08
6.57973e-06
2.51458e-08
6.57135e-06
-4.04978e-08
6.56995e-06
-2.71978e-09
6.56017e-06
1.43713e-08
6.5506e-06
2.63714e-09
6.54957e-06
2.23255e-08
6.54976e-06
5.64804e-08
7.31806e-08
6.54856e-06
6.89666e-06
5.81402e-08
6.88358e-06
-5.24487e-08
6.89379e-06
4.31916e-08
6.90564e-06
1.3738e-07
6.90038e-06
-5.43687e-08
6.88895e-06
-1.06741e-07
6.87847e-06
-4.32058e-08
6.87793e-06
1.88625e-08
6.89121e-06
1.63194e-07
6.89395e-06
1.36425e-07
6.89683e-06
6.49898e-08
6.90316e-06
9.19625e-08
6.8934e-06
3.49119e-08
6.88404e-06
-3.1138e-08
6.88291e-06
-1.59188e-09
6.87519e-06
2.2095e-08
6.86541e-06
1.24112e-08
6.8636e-06
2.4141e-08
6.86472e-06
5.5361e-08
7.3751e-08
6.86414e-06
7.22585e-06
5.14233e-08
7.21406e-06
-4.06506e-08
7.22278e-06
3.44693e-08
7.235e-06
1.2516e-07
7.22984e-06
-4.9211e-08
7.2196e-06
-9.65051e-08
7.20894e-06
-3.25371e-08
7.20704e-06
2.076e-08
7.21959e-06
1.50642e-07
7.22232e-06
1.337e-07
7.22373e-06
6.35714e-08
7.23015e-06
8.55475e-08
7.22213e-06
4.29333e-08
7.21212e-06
-2.11272e-08
7.21075e-06
-2.23178e-10
7.20501e-06
2.78362e-08
7.1956e-06
2.1814e-08
7.19276e-06
2.69809e-08
7.19442e-06
5.37086e-08
7.34264e-08
7.19474e-06
7.57074e-06
4.49116e-08
7.56022e-06
-3.01285e-08
7.56771e-06
2.69723e-08
7.57996e-06
1.12916e-07
7.57486e-06
-4.41121e-08
7.56605e-06
-8.76978e-08
7.55583e-06
-2.23211e-08
7.5525e-06
2.40922e-08
7.56383e-06
1.39317e-07
7.56662e-06
1.30908e-07
7.5668e-06
6.33916e-08
7.57286e-06
7.94885e-08
7.56656e-06
4.92347e-08
7.55626e-06
-1.08307e-08
7.55431e-06
1.73066e-09
7.5503e-06
3.18373e-08
7.54176e-06
3.03614e-08
7.53797e-06
3.07701e-08
7.5396e-06
5.20794e-08
7.20807e-08
7.54094e-06
7.93207e-06
3.8656e-08
7.92275e-06
-2.08081e-08
7.92931e-06
2.04089e-08
7.94132e-06
1.00907e-07
7.93631e-06
-3.9106e-08
7.92872e-06
-8.01095e-08
7.92003e-06
-1.36266e-08
7.91514e-06
2.89815e-08
7.92442e-06
1.30041e-07
7.92739e-06
1.27935e-07
7.92675e-06
6.40347e-08
7.93216e-06
7.40741e-08
7.92738e-06
5.40133e-08
7.91716e-06
-6.05845e-10
7.91445e-06
4.43712e-09
7.91185e-06
3.44425e-08
7.90448e-06
3.77244e-08
7.90003e-06
3.52229e-08
7.90118e-06
5.09344e-08
6.98843e-08
7.90337e-06
8.31063e-06
3.27099e-08
8.30241e-06
-1.25933e-08
8.30817e-06
1.46536e-08
8.31981e-06
8.9267e-08
8.31505e-06
-3.43461e-08
8.30812e-06
-7.3179e-08
8.3016e-06
-7.10482e-09
8.2949e-06
3.56748e-08
8.30189e-06
1.23056e-07
8.30536e-06
1.24461e-07
8.30433e-06
6.50619e-08
8.30893e-06
6.94786e-08
8.30541e-06
5.7531e-08
8.29552e-06
9.28102e-09
8.29204e-06
7.9234e-09
8.29047e-06
3.60078e-08
8.28446e-06
4.37384e-08
8.27971e-06
3.99696e-08
8.28015e-06
5.05e-08
6.72302e-08
8.2828e-06
8.70723e-06
2.71432e-08
8.70019e-06
-5.55208e-09
8.70476e-06
1.00802e-08
8.71616e-06
7.78659e-08
8.71115e-06
-2.93314e-08
8.70472e-06
-6.67489e-08
8.69876e-06
-1.14369e-09
8.69061e-06
4.38164e-08
8.69702e-06
1.16651e-07
8.7014e-06
1.20079e-07
8.70033e-06
6.61303e-08
8.70399e-06
6.58234e-08
8.70148e-06
6.00436e-08
8.69218e-06
1.85725e-08
8.68793e-06
1.21746e-08
8.68704e-06
3.68974e-08
8.68247e-06
4.8316e-08
8.67776e-06
4.46748e-08
8.67747e-06
5.07898e-08
6.45423e-08
8.68016e-06
9.12272e-06
2.20378e-08
9.11703e-06
1.43742e-10
9.1199e-06
7.20923e-09
9.1309e-06
6.68628e-08
9.12236e-06
-2.07872e-08
9.11238e-06
-5.67728e-08
9.1073e-06
3.94312e-09
9.10409e-06
4.70241e-08
9.1113e-06
1.09443e-07
9.11643e-06
1.1494e-07
9.1155e-06
6.70608e-08
9.1182e-06
6.31313e-08
9.1165e-06
6.17378e-08
9.10796e-06
2.7117e-08
9.10306e-06
1.70769e-08
9.10245e-06
3.75028e-08
9.09931e-06
5.14577e-08
9.09496e-06
4.90224e-08
9.09405e-06
5.16952e-08
6.21314e-08
9.09647e-06
9.55804e-06
1.74528e-08
9.55359e-06
4.6023e-09
9.55489e-06
5.90718e-09
9.56463e-06
5.71227e-08
9.55496e-06
-1.11152e-08
9.54346e-06
-4.52751e-08
9.54055e-06
6.8507e-09
9.53924e-06
4.83356e-08
9.54592e-06
1.02763e-07
9.55123e-06
1.09627e-07
9.55049e-06
6.78054e-08
9.55249e-06
6.11245e-08
9.55139e-06
6.28401e-08
9.54377e-06
3.47363e-08
9.53839e-06
2.24625e-08
9.53773e-06
3.81642e-08
9.53586e-06
5.33193e-08
9.53218e-06
5.27087e-08
9.53083e-06
5.30449e-08
6.01893e-08
9.53277e-06
1.00141e-05
1.3453e-08
1.00108e-05
7.91662e-09
1.00107e-05
5.99574e-09
1.00196e-05
4.82212e-08
1.00115e-05
-3.00351e-09
9.99931e-06
-3.3059e-08
9.99629e-06
9.86871e-09
9.99593e-06
4.86978e-08
1.00018e-05
9.68767e-08
1.00068e-05
1.04665e-07
1.00062e-05
6.83557e-08
1.00077e-05
5.96253e-08
1.00072e-05
6.34057e-08
1.00005e-05
4.13549e-08
9.99489e-06
2.8107e-08
9.99396e-06
3.91026e-08
9.99307e-06
5.42007e-08
9.99027e-06
5.55114e-08
9.98873e-06
5.4586e-08
5.88091e-08
9.99011e-06
1.0492e-05
1.01045e-08
1.04899e-05
1.0036e-08
1.04885e-05
7.3285e-09
1.04969e-05
3.98682e-08
1.04904e-05
3.48282e-09
1.04778e-05
-2.04878e-08
1.04741e-05
1.35598e-08
1.04745e-05
4.83332e-08
1.04799e-05
9.15036e-08
1.04843e-05
1.00281e-07
1.04837e-05
6.89047e-08
1.04848e-05
5.84925e-08
1.04848e-05
6.34884e-08
1.04792e-05
4.69177e-08
1.04736e-05
3.37506e-08
1.04722e-05
4.04499e-08
1.0472e-05
5.44269e-08
1.04701e-05
5.73752e-08
1.04687e-05
5.60181e-08
5.79583e-08
1.04695e-05
1.09927e-05
7.44741e-09
1.09917e-05
1.10091e-08
1.09895e-05
9.55211e-09
1.09968e-05
3.25282e-08
1.09921e-05
8.16676e-09
1.09798e-05
-8.12243e-09
1.09751e-05
1.82427e-08
1.09758e-05
4.76281e-08
1.0981e-05
8.63355e-08
1.09849e-05
9.63814e-08
1.09842e-05
6.96106e-08
1.09849e-05
5.77864e-08
1.09852e-05
6.3151e-08
1.09808e-05
5.13363e-08
1.09754e-05
3.91714e-08
1.09736e-05
4.22127e-08
1.09737e-05
5.42901e-08
1.09727e-05
5.8397e-08
1.09716e-05
5.71182e-08
5.74618e-08
1.09721e-05
1.15173e-05
5.493e-09
1.15174e-05
1.09106e-08
1.15145e-05
1.24327e-08
1.15204e-05
2.66829e-08
1.15176e-05
1.09894e-08
1.1506e-05
3.43898e-09
1.15003e-05
2.39462e-08
1.15008e-05
4.70796e-08
1.1506e-05
8.11954e-08
1.15096e-05
9.27213e-08
1.15088e-05
7.04889e-08
1.1509e-05
5.75823e-08
1.15095e-05
6.25736e-08
1.15063e-05
5.46255e-08
1.15013e-05
4.40892e-08
1.14992e-05
4.4337e-08
1.14995e-05
5.4031e-08
1.14992e-05
5.87115e-08
1.14985e-05
5.78017e-08
5.70746e-08
1.14989e-05
1.20671e-05
4.2218e-09
1.2068e-05
9.9774e-09
1.20648e-05
1.56379e-08
1.20688e-05
2.27535e-08
1.20676e-05
1.2184e-08
1.20575e-05
1.35296e-08
1.2051e-05
3.04321e-08
1.20509e-05
4.7144e-08
1.2056e-05
7.61457e-08
1.20597e-05
8.8993e-08
1.20587e-05
7.14599e-08
1.20584e-05
5.79479e-08
1.2059e-05
6.18971e-08
1.20567e-05
5.69523e-08
1.20525e-05
4.8259e-08
1.20502e-05
4.66425e-08
1.20504e-05
5.38451e-08
1.20507e-05
5.8465e-08
1.20504e-05
5.80679e-08
5.66335e-08
1.20508e-05
1.26432e-05
3.57891e-09
1.26446e-05
8.57779e-09
1.26414e-05
1.88527e-08
1.26432e-05
2.10044e-08
1.26431e-05
1.22132e-08
1.26352e-05
2.15111e-08
1.26284e-05
3.72226e-08
1.26274e-05
4.81292e-08
1.26321e-05
7.1437e-08
1.2636e-05
8.5051e-08
1.26352e-05
7.22977e-08
1.26343e-05
5.88142e-08
1.26349e-05
6.13206e-08
1.26334e-05
5.84796e-08
1.263e-05
5.16048e-08
1.26278e-05
4.88888e-08
1.26278e-05
5.38228e-08
1.26284e-05
5.78416e-08
1.26286e-05
5.79064e-08
5.60804e-08
1.26291e-05
1.3247e-05
3.46935e-09
1.32485e-05
7.11837e-09
1.32455e-05
2.18114e-08
1.32452e-05
2.13829e-08
1.32457e-05
1.17117e-08
1.32402e-05
2.70215e-08
1.32337e-05
4.37208e-08
1.32317e-05
5.01253e-08
1.32357e-05
6.7443e-08
1.32398e-05
8.09023e-08
1.32394e-05
7.27231e-08
1.32382e-05
6.00175e-08
1.32385e-05
6.10279e-08
1.32376e-05
5.93713e-08
1.3235e-05
5.41647e-08
1.3233e-05
5.08709e-08
1.32329e-05
5.39201e-08
1.32337e-05
5.70387e-08
1.32343e-05
5.73399e-08
5.53814e-08
1.3235e-05
1.38799e-05
3.7566e-09
1.38811e-05
5.87209e-09
1.38787e-05
2.42142e-08
1.38766e-05
2.35413e-08
1.38767e-05
1.15358e-08
1.38736e-05
3.01445e-08
1.3868e-05
4.92955e-08
1.38652e-05
5.30014e-08
1.38681e-05
6.45306e-08
1.38723e-05
7.66834e-08
1.38725e-05
7.25429e-08
1.38711e-05
6.13497e-08
1.38712e-05
6.10175e-08
1.38707e-05
5.98636e-08
1.38688e-05
5.60082e-08
1.38672e-05
5.24727e-08
1.38671e-05
5.40389e-08
1.3868e-05
5.6167e-08
1.38688e-05
5.64693e-08
5.44727e-08
1.38697e-05
1.45431e-05
4.28174e-09
1.45438e-05
5.24117e-09
1.45423e-05
2.56981e-08
1.4539e-05
2.68357e-08
1.45381e-05
1.24453e-08
1.45368e-05
3.13916e-08
1.45327e-05
5.34323e-08
1.45293e-05
5.64234e-08
1.45309e-05
6.28807e-08
1.45349e-05
7.26941e-08
1.45357e-05
7.17337e-08
1.45346e-05
6.25206e-08
1.45343e-05
6.12448e-08
1.45341e-05
6.01223e-08
1.45328e-05
5.72553e-08
1.45316e-05
5.3645e-08
1.45316e-05
5.40836e-08
1.45325e-05
5.52346e-08
1.45336e-05
5.54118e-08
5.33345e-08
1.45347e-05
1.52383e-05
4.88134e-09
1.52382e-05
5.29438e-09
1.52377e-05
2.62567e-08
1.52339e-05
3.06345e-08
1.52315e-05
1.48378e-08
1.52313e-05
3.15811e-08
1.52288e-05
5.58741e-08
1.52254e-05
5.98959e-08
1.52258e-05
6.24454e-08
1.52292e-05
6.93154e-08
1.52305e-05
7.03922e-08
1.52298e-05
6.32805e-08
1.52294e-05
6.16221e-08
1.52293e-05
6.02156e-08
1.52285e-05
5.80313e-08
1.52277e-05
5.44193e-08
1.52279e-05
5.3979e-08
1.52289e-05
5.42299e-08
1.52301e-05
5.42203e-08
5.20256e-08
1.52314e-05
1.59668e-05
5.43284e-09
1.59661e-05
6.00276e-09
1.59662e-05
2.60997e-08
1.59625e-05
3.43648e-08
1.59587e-05
1.86439e-08
1.59587e-05
3.16179e-08
1.59578e-05
5.67042e-08
1.59549e-05
6.28501e-08
1.59543e-05
6.30362e-08
1.59568e-05
6.68323e-08
1.59584e-05
6.8724e-08
1.59582e-05
6.35378e-08
1.59579e-05
6.19441e-08
1.59578e-05
6.0221e-08
1.59575e-05
5.8376e-08
1.5957e-05
5.4878e-08
1.59573e-05
5.36971e-08
1.59584e-05
5.31431e-08
1.59597e-05
5.2907e-08
5.06043e-08
1.59611e-05
1.67302e-05
5.86353e-09
1.67288e-05
7.3947e-09
1.67294e-05
2.54594e-08
1.67263e-05
3.75337e-08
1.67214e-05
2.35036e-08
1.67207e-05
3.22677e-08
1.67212e-05
5.62643e-08
1.67192e-05
6.48536e-08
1.67179e-05
6.43318e-08
1.67194e-05
6.52989e-08
1.67211e-05
6.70589e-08
1.67213e-05
6.33417e-08
1.67212e-05
6.1999e-08
1.67213e-05
6.01477e-08
1.67213e-05
5.83704e-08
1.67212e-05
5.50145e-08
1.67216e-05
5.32792e-08
1.67228e-05
5.19514e-08
1.67242e-05
5.14828e-08
4.90955e-08
1.67257e-05
1.75301e-05
6.14413e-09
1.75282e-05
9.2419e-09
1.75289e-05
2.47521e-08
1.75266e-05
3.98718e-08
1.75212e-05
2.8931e-08
1.75195e-05
3.39239e-08
1.75206e-05
5.51483e-08
1.75197e-05
6.5762e-08
1.75182e-05
6.58387e-08
1.75189e-05
6.46515e-08
1.75203e-05
6.56737e-08
1.75208e-05
6.27994e-08
1.7521e-05
6.17472e-08
1.75213e-05
5.98778e-08
1.75215e-05
5.81391e-08
1.75218e-05
5.47826e-08
1.75223e-05
5.27574e-08
1.75236e-05
5.06732e-08
1.75251e-05
4.99299e-08
4.75245e-08
1.75267e-05
1.83682e-05
6.30386e-09
1.83661e-05
1.13432e-08
1.83665e-05
2.43333e-08
1.8365e-05
4.13352e-08
1.83597e-05
3.43103e-08
1.83569e-05
3.66402e-08
1.83581e-05
5.40304e-08
1.83581e-05
6.56979e-08
1.83569e-05
6.70636e-08
1.83568e-05
6.4736e-08
1.83578e-05
6.47002e-08
1.83585e-05
6.2085e-08
1.8359e-05
6.12491e-08
1.83596e-05
5.93053e-08
1.836e-05
5.76969e-08
1.83606e-05
5.42381e-08
1.83613e-05
5.20654e-08
1.83625e-05
4.93817e-08
1.83643e-05
4.82238e-08
4.58968e-08
1.83659e-05
1.92463e-05
6.4049e-09
1.92442e-05
1.34723e-08
1.92441e-05
2.44325e-08
1.92433e-05
4.21237e-08