/*--------------------------------*- C++ -*----------------------------------*\
| =========                 |                                                 |
| \\      /  F ield         | OpenFOAM: The Open Source CFD Toolbox           |
|  \\    /   O peration     | Version:  2506                                  |
|   \\  /    A nd           | Website:  www.openfoam.com                      |
|    \\/     M anipulation  |                                                 |
\*---------------------------------------------------------------------------*/
FoamFile
{
    version     2.0;
    format      ascii;
    arch        "LSB;label=32;scalar=64";
    class       surfaceScalarField;
    location    "1.45";
    object      phi;
}
// * * * * * * * * * * * * * * * * * * * * * * * * * * * * * * * * * * * * * //

dimensions      [0 3 -1 0 0 0 0];

oriented        oriented;

internalField   nonuniform List<scalar> 
19000
(
1.17351e-06
-2.98826e-07
1.16292e-06
1.03539e-07
1.18089e-06
-1.77792e-07
1.19636e-06
7.28889e-08
1.1825e-06
1.52658e-07
1.13841e-06
5.41427e-08
1.16884e-06
2.0891e-07
1.16829e-06
-2.21163e-07
1.1811e-06
-4.80795e-07
1.20493e-06
-2.10467e-07
1.20205e-06
-1.84794e-07
1.19944e-06
-3.33013e-08
1.19769e-06
2.1402e-07
1.17645e-06
1.40798e-07
1.18369e-06
5.26087e-07
1.15416e-06
5.57669e-08
1.16666e-06
3.20985e-07
1.13384e-06
-6.75398e-08
1.14376e-06
1.94547e-07
-8.41948e-08
1.08871e-06
1.23008e-06
-3.04641e-07
1.22164e-06
1.11975e-07
1.23936e-06
-1.95513e-07
1.25626e-06
5.59861e-08
1.2395e-06
1.69419e-07
1.19998e-06
9.36602e-08
1.22327e-06
1.85621e-07
1.22611e-06
-2.24005e-07
1.23799e-06
-4.92676e-07
1.26326e-06
-2.35729e-07
1.2592e-06
-1.80735e-07
1.25995e-06
-3.40556e-08
1.2516e-06
2.22373e-07
1.23953e-06
1.52872e-07
1.2324e-06
5.33214e-07
1.22021e-06
6.79538e-08
1.21106e-06
3.30134e-07
1.20546e-06
-6.19359e-08
1.18532e-06
2.1469e-07
-7.57322e-08
1.17685e-06
1.28741e-06
-3.09265e-07
1.28509e-06
1.14291e-07
1.29992e-06
-2.10342e-07
1.31928e-06
3.66292e-08
1.29956e-06
1.89142e-07
1.26902e-06
1.24197e-07
1.28189e-06
1.72748e-07
1.28854e-06
-2.3065e-07
1.2952e-06
-4.9934e-07
1.32217e-06
-2.62693e-07
1.31784e-06
-1.76405e-07
1.32209e-06
-3.83146e-08
1.30999e-06
2.34473e-07
1.30246e-06
1.60409e-07
1.29428e-06
5.41395e-07
1.28663e-06
7.56042e-08
1.27959e-06
3.37175e-07
1.27337e-06
-5.5723e-08
1.26678e-06
2.21285e-07
-5.53178e-08
1.24636e-06
1.34602e-06
-3.1118e-07
1.35014e-06
1.10169e-07
1.36123e-06
-2.21435e-07
1.38194e-06
1.59187e-08
1.3614e-06
2.09684e-07
1.3407e-06
1.44901e-07
1.34456e-06
1.6888e-07
1.35154e-06
-2.3763e-07
1.35322e-06
-5.01017e-07
1.37875e-06
-2.88225e-07
1.37824e-06
-1.75895e-07
1.38268e-06
-4.27552e-08
1.37332e-06
2.43832e-07
1.366e-06
1.67728e-07
1.36253e-06
5.44865e-07
1.3542e-06
8.39351e-08
1.3515e-06
3.39881e-07
1.34087e-06
-4.50992e-08
1.34106e-06
2.21101e-07
-2.92052e-08
1.31494e-06
1.40692e-06
-3.09741e-07
1.41541e-06
1.01679e-07
1.42302e-06
-2.29053e-07
1.44259e-06
-3.64721e-09
1.4244e-06
2.27879e-07
1.41191e-06
1.57382e-07
1.41065e-06
1.70149e-07
1.41407e-06
-2.41056e-07
1.41288e-06
-4.99831e-07
1.4344e-06
-3.09738e-07
1.43936e-06
-1.80858e-07
1.44389e-06
-4.7287e-08
1.43936e-06
2.48362e-07
1.43284e-06
1.74249e-07
1.43296e-06
5.44749e-07
1.42367e-06
9.32244e-08
1.42292e-06
3.40631e-07
1.4088e-06
-3.09748e-08
1.4113e-06
2.18594e-07
-1.35115e-09
1.38345e-06
1.47145e-06
-3.05513e-07
1.4813e-06
9.18239e-08
1.48621e-06
-2.33962e-07
1.50219e-06
-1.96246e-08
1.48868e-06
2.41386e-07
1.48237e-06
1.63694e-07
1.47964e-06
1.72876e-07
1.4782e-06
-2.39614e-07
1.47525e-06
-4.96882e-07
1.49202e-06
-3.26505e-07
1.50049e-06
-1.8933e-07
1.5067e-06
-5.35023e-08
1.50691e-06
2.48161e-07
1.50263e-06
1.78523e-07
1.50523e-06
5.42154e-07
1.49495e-06
1.03502e-07
1.49516e-06
3.40419e-07
1.47813e-06
-1.39485e-08
1.48198e-06
2.14747e-07
2.70181e-08
1.45361e-06
1.54052e-06
-2.99813e-07
1.54935e-06
8.29941e-08
1.5521e-06
-2.36716e-07
1.56332e-06
-3.08435e-08
1.55502e-06
2.4969e-07
1.5534e-06
1.65315e-07
1.5514e-06
1.74869e-07
1.54634e-06
-2.34551e-07
1.54148e-06
-4.92019e-07
1.5536e-06
-3.38624e-07
1.56257e-06
-1.98303e-07
1.57083e-06
-6.17602e-08
1.57521e-06
2.43777e-07
1.57376e-06
1.79979e-07
1.57847e-06
5.37439e-07
1.56727e-06
1.147e-07
1.56842e-06
3.39275e-07
1.54908e-06
5.3891e-09
1.55418e-06
2.09648e-07
5.51009e-08
1.5261e-06
1.61424e-06
-2.93926e-07
1.62099e-06
7.62432e-08
1.62174e-06
-2.37461e-07
1.6285e-06
-3.76119e-08
1.62455e-06
2.53642e-07
1.62656e-06
1.63311e-07
1.62617e-06
1.75259e-07
1.61963e-06
-2.2801e-07
1.61254e-06
-4.84936e-07
1.62016e-06
-3.46237e-07
1.62733e-06
-2.0548e-07
1.63643e-06
-7.0862e-08
1.64383e-06
2.36385e-07
1.64489e-06
1.78919e-07
1.65171e-06
5.3062e-07
1.63996e-06
1.26444e-07
1.6426e-06
3.36641e-07
1.62177e-06
2.62116e-08
1.62823e-06
2.03189e-07
8.20536e-08
1.60128e-06
1.69222e-06
-2.88575e-07
1.69698e-06
7.14846e-08
1.69572e-06
-2.36202e-07
1.69921e-06
-4.11016e-08
1.69839e-06
2.54468e-07
1.70298e-06
1.5872e-07
1.70426e-06
1.73975e-07
1.69797e-06
-2.21715e-07
1.68879e-06
-4.75758e-07
1.69215e-06
-3.49593e-07
1.69626e-06
-2.09596e-07
1.70445e-06
-7.90531e-08
1.71322e-06
2.27617e-07
1.71591e-06
1.76233e-07
1.72498e-06
5.21549e-07
1.71327e-06
1.38152e-07
1.71811e-06
3.31798e-07
1.69676e-06
4.75683e-08
1.70457e-06
1.95378e-07
1.07017e-07
1.6796e-06
1.77404e-06
-2.83891e-07
1.77743e-06
6.8095e-08
1.77433e-06
-2.33107e-07
1.77583e-06
-4.2602e-08
1.77714e-06
2.53158e-07
1.78328e-06
1.5258e-07
1.7859e-06
1.71361e-07
1.78074e-06
-2.16555e-07
1.76992e-06
-4.64946e-07
1.76959e-06
-3.49259e-07
1.77032e-06
-2.10321e-07
1.77617e-06
-8.49059e-08
1.78484e-06
2.18947e-07
1.78808e-06
1.72994e-07
1.79952e-06
5.10109e-07
1.7884e-06
1.49268e-07
1.79592e-06
3.24276e-07
1.77488e-06
6.86065e-08
1.78377e-06
1.86493e-07
1.29259e-07
1.76153e-06
1.85952e-06
-2.79658e-07
1.8622e-06
6.54118e-08
1.85763e-06
-2.28537e-07
1.85813e-06
-4.31016e-08
1.86089e-06
2.50393e-07
1.86775e-06
1.45729e-07
1.8712e-06
1.67909e-07
1.86735e-06
-2.12711e-07
1.85543e-06
-4.5302e-07
1.85222e-06
-3.46052e-07
1.84998e-06
-2.0808e-07
1.85282e-06
-8.7745e-08
1.86052e-06
2.11241e-07
1.86343e-06
1.70086e-07
1.87719e-06
4.96352e-07
1.86699e-06
1.59471e-07
1.8772e-06
3.14067e-07
1.85708e-06
8.87214e-08
1.86643e-06
1.77143e-07
1.48212e-07
1.84748e-06
1.94876e-06
-2.75579e-07
1.95123e-06
6.29435e-08
1.9456e-06
-2.22907e-07
1.94572e-06
-4.32225e-08
1.94945e-06
2.4666e-07
1.9565e-06
1.38685e-07
1.96034e-06
1.64061e-07
1.95758e-06
-2.09948e-07
1.94495e-06
-4.40394e-07
1.93971e-06
-3.40811e-07
1.93538e-06
-2.03744e-07
1.93529e-06
-8.76548e-08
1.94186e-06
2.04671e-07
1.94392e-06
1.68023e-07
1.95975e-06
4.80517e-07
1.95049e-06
1.68738e-07
1.96292e-06
3.01636e-07
1.94409e-06
1.07554e-07
1.95306e-06
1.68167e-07
1.63498e-07
1.93778e-06
2.04202e-06
-2.71405e-07
2.04458e-06
6.03775e-08
2.03822e-06
-2.16541e-07
2.03831e-06
-4.33188e-08
2.04264e-06
2.42335e-07
2.04965e-06
1.31668e-07
2.0536e-06
1.60114e-07
2.05152e-06
-2.07869e-07
2.03848e-06
-4.27357e-07
2.03186e-06
-3.3419e-07
2.02639e-06
-1.98275e-07
2.02394e-06
-8.52047e-08
2.02971e-06
1.98909e-07
2.03076e-06
1.66964e-07
2.0483e-06
4.62987e-07
2.03979e-06
1.77241e-07
2.05367e-06
2.87763e-07
2.03633e-06
1.24894e-07
2.04407e-06
1.60422e-07
1.74967e-07
2.0326e-06
2.13957e-06
-2.66978e-07
2.14243e-06
5.75216e-08
2.13551e-06
-2.09625e-07
2.13578e-06
-4.35865e-08
2.14041e-06
2.37709e-07
2.14737e-06
1.24703e-07
2.15128e-06
1.56205e-07
2.14949e-06
-2.06078e-07
2.13624e-06
-4.14109e-07
2.12864e-06
-3.26589e-07
2.12283e-06
-1.92466e-07
2.11872e-06
-8.10963e-08
2.1242e-06
1.93432e-07
2.12434e-06
1.66823e-07
2.14312e-06
4.44204e-07
2.1352e-06
1.85166e-07
2.14961e-06
2.73358e-07
2.13393e-06
1.40564e-07
2.13979e-06
1.5457e-07
1.8272e-07
2.13203e-06
2.24171e-06
-2.62203e-07
2.24498e-06
5.42526e-08
2.23758e-06
-2.02223e-07
2.23813e-06
-4.41329e-08
2.24285e-06
2.32986e-07
2.24982e-06
1.17736e-07
2.25367e-06
1.5235e-07
2.25186e-06
-2.04263e-07
2.23856e-06
-4.00812e-07
2.23016e-06
-3.18187e-07
2.22453e-06
-1.86835e-07
2.21934e-06
-7.59117e-08
2.225e-06
1.87775e-07
2.22444e-06
1.67386e-07
2.24402e-06
4.24624e-07
2.23659e-06
1.92588e-07
2.25068e-06
2.59276e-07
2.23687e-06
1.54372e-07
2.24056e-06
1.50882e-07
1.87168e-07
2.23611e-06
2.34871e-06
-2.57033e-07
2.35247e-06
5.04861e-08
2.34458e-06
-1.94332e-07
2.34546e-06
-4.50132e-08
2.35015e-06
2.28296e-07
2.35718e-06
1.10703e-07
2.36104e-06
1.48495e-07
2.35898e-06
-2.02204e-07
2.34578e-06
-3.8761e-07
2.33661e-06
-3.09019e-07
2.33144e-06
-1.81659e-07
2.32555e-06
-7.00289e-08
2.33165e-06
1.81675e-07
2.33064e-06
1.68395e-07
2.35057e-06
4.04696e-07
2.34374e-06
1.9942e-07
2.35678e-06
2.46232e-07
2.34504e-06
1.66117e-07
2.34666e-06
1.49258e-07
1.88942e-07
2.34489e-06
2.4608e-06
-2.51441e-07
2.46513e-06
4.61625e-08
2.45671e-06
-1.85919e-07
2.45795e-06
-4.62512e-08
2.46254e-06
2.23708e-07
2.46967e-06
1.03575e-07
2.47361e-06
1.44555e-07
2.47116e-06
-1.99758e-07
2.4582e-06
-3.74647e-07
2.44823e-06
-2.99051e-07
2.44361e-06
-1.77043e-07
2.43725e-06
-6.36641e-08
2.44383e-06
1.7509e-07
2.44266e-06
1.69571e-07
2.4625e-06
3.84856e-07
2.45645e-06
2.05465e-07
2.46801e-06
2.34675e-07
2.45839e-06
1.75737e-07
2.45825e-06
1.49396e-07
1.88689e-07
2.4585e-06
2.57827e-06
-2.45413e-07
2.58319e-06
4.12411e-08
2.57422e-06
-1.7695e-07
2.57582e-06
-4.78528e-08
2.58028e-06
2.19248e-07
2.58749e-06
9.6361e-08
2.59161e-06
1.40438e-07
2.58867e-06
-1.96818e-07
2.57609e-06
-3.62066e-07
2.56527e-06
-2.88231e-07
2.56121e-06
-1.72987e-07
2.55451e-06
-5.69655e-08
2.56144e-06
1.68167e-07
2.56039e-06
1.70621e-07
2.57973e-06
3.65518e-07
2.57469e-06
2.10503e-07
2.5846e-06
2.24761e-07
2.57696e-06
1.83381e-07
2.57551e-06
1.50847e-07
1.87016e-07
2.57718e-06
2.70135e-06
-2.38939e-07
2.7069e-06
3.56962e-08
2.69735e-06
-1.67401e-07
2.69931e-06
-4.98123e-08
2.70365e-06
2.1491e-07
2.7109e-06
8.91105e-08
2.71529e-06
1.36046e-07
2.71176e-06
-1.93284e-07
2.69969e-06
-3.50002e-07
2.68799e-06
-2.76529e-07
2.68443e-06
-1.69424e-07
2.67755e-06
-5.00916e-08
2.68454e-06
1.6118e-07
2.68392e-06
1.71247e-07
2.70239e-06
3.47044e-07
2.6985e-06
2.14388e-07
2.70687e-06
2.164e-07
2.70091e-06
1.89335e-07
2.69862e-06
1.53137e-07
1.84432e-07
2.70121e-06
2.83034e-06
-2.32014e-07
2.83653e-06
2.9515e-08
2.82639e-06
-1.57265e-07
2.82869e-06
-5.21106e-08
2.83294e-06
2.10658e-07
2.84015e-06
8.1904e-08
2.84492e-06
1.31274e-07
2.84069e-06
-1.8905e-07
2.82925e-06
-3.3857e-07
2.81669e-06
-2.63962e-07
2.81349e-06
-1.66227e-07
2.80665e-06
-4.3249e-08
2.81337e-06
1.54459e-07
2.81343e-06
1.71186e-07
2.83076e-06
3.29708e-07
2.82805e-06
2.17103e-07
2.8351e-06
2.0935e-07
2.83056e-06
1.9387e-07
2.82778e-06
1.55922e-07
1.81273e-07
2.83094e-06
2.96552e-06
-2.24637e-07
2.97234e-06
2.26953e-08
2.96163e-06
-1.46558e-07
2.96423e-06
-5.47102e-08
2.96846e-06
2.06427e-07
2.97552e-06
7.48506e-08
2.98078e-06
1.26007e-07
2.97574e-06
-1.8401e-07
2.96501e-06
-3.2784e-07
2.95166e-06
-2.50614e-07
2.94864e-06
-1.63207e-07
2.94209e-06
-3.66982e-08
2.94822e-06
1.48333e-07
2.94915e-06
1.70256e-07
2.96525e-06
3.13609e-07
2.96352e-06
2.18832e-07
2.96959e-06
2.03278e-07
2.96628e-06
1.97177e-07
2.96321e-06
1.58999e-07
1.77764e-07
2.96672e-06
3.10718e-06
-2.1681e-07
3.11463e-06
1.52459e-08
3.10339e-06
-1.35316e-07
3.10623e-06
-5.75491e-08
3.11052e-06
2.02129e-07
3.11729e-06
6.80803e-08
3.12317e-06
1.20129e-07
3.11724e-06
-1.78075e-07
3.10722e-06
-3.17826e-07
3.09326e-06
-2.36652e-07
3.09016e-06
-1.60108e-07
3.08419e-06
-3.073e-08
3.08946e-06
1.43072e-07
3.09131e-06
1.68402e-07
3.10624e-06
2.98677e-07
3.10521e-06
2.19862e-07
3.11057e-06
1.97921e-07
3.10846e-06
1.99289e-07
3.10516e-06
1.62301e-07
1.74051e-07
3.10887e-06
3.25564e-06
-2.08537e-07
3.2637e-06
7.18744e-09
3.25199e-06
-1.23606e-07
3.25497e-06
-6.0536e-08
3.25945e-06
1.97653e-07
3.26579e-06
6.17385e-08
3.27239e-06
1.13529e-07
3.26551e-06
-1.71198e-07
3.25616e-06
-3.08469e-07
3.24181e-06
-2.22306e-07
3.23835e-06
-1.56649e-07
3.23323e-06
-2.56109e-08
3.23746e-06
1.38838e-07
3.24015e-06
1.6572e-07
3.25412e-06
2.84709e-07
3.2535e-06
2.20479e-07
3.25827e-06
1.9315e-07
3.25742e-06
2.00136e-07
3.25395e-06
1.65769e-07
1.70308e-07
3.2577e-06
3.41122e-06
-1.99829e-07
3.41986e-06
-1.44543e-09
3.40777e-06
-1.11519e-07
3.41078e-06
-6.35506e-08
3.41557e-06
1.92869e-07
3.42133e-06
5.5974e-08
3.42874e-06
1.06127e-07
3.42093e-06
-1.63392e-07
3.4121e-06
-2.99635e-07
3.39767e-06
-2.07875e-07
3.39354e-06
-1.52527e-07
3.38947e-06
-2.15387e-08
3.39266e-06
1.35653e-07
3.39593e-06
1.62446e-07
3.40919e-06
2.71446e-07
3.40881e-06
2.20861e-07
3.41297e-06
1.88987e-07
3.41347e-06
1.99639e-07
3.40998e-06
1.69263e-07
1.66774e-07
3.41351e-06
3.57428e-06
-1.90702e-07
3.58344e-06
-1.06011e-08
3.5711e-06
-9.91813e-08
3.57399e-06
-6.64438e-08
3.57923e-06
1.87637e-07
3.58427e-06
5.09293e-08
3.59252e-06
9.78802e-08
3.58387e-06
-1.54741e-07
3.57536e-06
-2.91133e-07
3.56118e-06
-1.93685e-07
3.55612e-06
-1.47474e-07
3.55318e-06
-1.85988e-08
3.55544e-06
1.33393e-07
3.55895e-06
1.58939e-07
3.57177e-06
2.58622e-07
3.57158e-06
2.21053e-07
3.57501e-06
1.85557e-07
3.57688e-06
1.97776e-07
3.57361e-06
1.72532e-07
1.63733e-07
3.57665e-06
3.74518e-06
-1.81176e-07
3.75479e-06
-2.02091e-08
3.74235e-06
-8.6748e-08
3.74495e-06
-6.90437e-08
3.75077e-06
1.81819e-07
3.75498e-06
4.67219e-08
3.76405e-06
8.88079e-08
3.75472e-06
-1.45409e-07
3.7463e-06
-2.82719e-07
3.73268e-06
-1.80064e-07
3.7265e-06
-1.41293e-07
3.72464e-06
-1.67368e-08
3.72623e-06
1.31807e-07
3.72957e-06
1.55598e-07
3.74213e-06
2.46056e-07
3.74223e-06
2.20958e-07
3.74481e-06
1.82975e-07
3.74791e-06
1.94676e-07
3.74522e-06
1.75225e-07
1.61435e-07
3.74752e-06
3.92429e-06
-1.7128e-07
3.93426e-06
-3.01789e-08
3.92192e-06
-7.44047e-08
3.92404e-06
-7.11624e-08
3.93056e-06
1.75293e-07
3.93386e-06
4.34279e-08
3.94367e-06
7.9e-08
3.93389e-06
-1.35631e-07
3.9253e-06
-2.74128e-07
3.91253e-06
-1.67293e-07
3.90513e-06
-1.33902e-07
3.90415e-06
-1.57515e-08
3.90537e-06
1.30584e-07
3.90822e-06
1.52755e-07
3.92054e-06
2.3373e-07
3.9211e-06
2.20394e-07
3.92283e-06
1.81245e-07
3.92688e-06
1.90626e-07
3.92514e-06
1.76966e-07
1.60008e-07
3.92657e-06
4.11202e-06
-1.61054e-07
4.12224e-06
-4.03994e-08
4.1102e-06
-6.2362e-08
4.11165e-06
-7.26088e-08
4.11897e-06
1.67967e-07
4.12134e-06
4.10656e-08
4.13172e-06
6.86205e-08
4.12178e-06
-1.25696e-07
4.11275e-06
-2.65102e-07
4.10103e-06
-1.55573e-07
4.09248e-06
-1.25347e-07
4.09207e-06
-1.53392e-08
4.09322e-06
1.29434e-07
4.09536e-06
1.50609e-07
4.10735e-06
2.21747e-07
4.10858e-06
2.19162e-07
4.10954e-06
1.80282e-07
4.11418e-06
1.85985e-07
4.11368e-06
1.77474e-07
1.59372e-07
4.11431e-06
4.30879e-06
-1.50543e-07
4.31913e-06
-5.07388e-08
4.30762e-06
-5.08523e-08
4.30821e-06
-7.32017e-08
4.31638e-06
1.59796e-07
4.31786e-06
3.95882e-08
4.32859e-06
5.78957e-08
4.31881e-06
-1.15921e-07
4.30913e-06
-2.55415e-07
4.29855e-06
-1.45001e-07
4.28899e-06
-1.15783e-07
4.2888e-06
-1.51521e-08
4.29011e-06
1.28126e-07
4.29147e-06
1.49253e-07
4.30295e-06
2.10266e-07
4.30504e-06
2.17068e-07
4.30539e-06
1.7993e-07
4.31027e-06
1.8111e-07
4.31112e-06
1.76619e-07
1.5925e-07
4.31125e-06
4.51503e-06
-1.39803e-07
4.52534e-06
-6.10491e-08
4.5146e-06
-4.01122e-08
4.5142e-06
-7.2796e-08
4.52319e-06
1.50802e-07
4.5239e-06
3.88796e-08
4.5347e-06
4.70981e-08
4.52539e-06
-1.06615e-07
4.51489e-06
-2.44907e-07
4.50544e-06
-1.35557e-07
4.4951e-06
-1.05442e-07
4.49478e-06
-1.4831e-08
4.49638e-06
1.26531e-07
4.49697e-06
1.48658e-07
4.50777e-06
1.99464e-07
4.51089e-06
2.13948e-07
4.51085e-06
1.79974e-07
4.51563e-06
1.76327e-07
4.51781e-06
1.7444e-07
1.59221e-07
4.51784e-06
4.73121e-06
-1.28897e-07
4.74133e-06
-7.11702e-08
4.73158e-06
-3.03572e-08
4.7301e-06
-7.13155e-08
4.73982e-06
1.41077e-07
4.73993e-06
3.87729e-08
4.75051e-06
3.65193e-08
4.74191e-06
-9.80227e-08
4.73053e-06
-2.33526e-07
4.72209e-06
-1.27119e-07
4.71124e-06
-9.45892e-08
4.71045e-06
-1.4039e-08
4.71239e-06
1.24589e-07
4.71232e-06
1.48726e-07
4.72232e-06
1.89466e-07
4.72654e-06
2.09724e-07
4.72639e-06
1.80133e-07
4.73082e-06
1.71894e-07
4.7341e-06
1.71159e-07
1.58819e-07
4.7345e-06
4.9578e-06
-1.17896e-07
4.96756e-06
-8.09363e-08
4.95896e-06
-2.17518e-08
4.95642e-06
-6.87793e-08
4.96673e-06
1.30773e-07
4.96642e-06
3.90817e-08
4.9765e-06
2.64384e-08
4.96877e-06
-9.0296e-08
4.95655e-06
-2.2131e-07
4.94894e-06
-1.19503e-07
4.93781e-06
-8.34603e-08
4.93625e-06
-1.24782e-08
4.93855e-06
1.22284e-07
4.93807e-06
1.4921e-07
4.94715e-06
1.80384e-07
4.95246e-06
2.04414e-07
4.95246e-06
1.80138e-07
4.9564e-06
1.67948e-07
4.96044e-06
1.67119e-07
1.5767e-07
4.96159e-06
5.1953e-06
-1.06875e-07
5.20454e-06
-9.0181e-08
5.19718e-06
-1.43902e-08
5.19371e-06
-6.53079e-08
5.20442e-06
1.20063e-07
5.20385e-06
3.96504e-08
5.21324e-06
1.70455e-08
5.2064e-06
-8.34556e-08
5.19343e-06
-2.0834e-07
5.18643e-06
-1.12506e-07
5.17521e-06
-7.22382e-08
5.17265e-06
-9.92102e-09
5.17531e-06
1.19625e-07
5.17479e-06
1.49728e-07
5.18287e-06
1.72305e-07
5.18913e-06
1.9816e-07
5.18951e-06
1.79756e-07
5.19293e-06
1.64525e-07
5.19737e-06
1.62684e-07
1.55597e-07
5.19944e-06
5.44423e-06
-9.5912e-08
5.45279e-06
-9.87489e-08
5.44671e-06
-8.30361e-09
5.44249e-06
-6.10947e-08
5.45345e-06
1.0911e-07
5.4527e-06
4.03989e-08
5.4613e-06
8.44675e-09
5.45528e-06
-7.74376e-08
5.44163e-06
-1.94692e-07
5.43503e-06
-1.05904e-07
5.4239e-06
-6.11055e-08
5.42019e-06
-6.2162e-09
5.42323e-06
1.16583e-07
5.42303e-06
1.49929e-07
5.43009e-06
1.65246e-07
5.43708e-06
1.91176e-07
5.43801e-06
1.78823e-07
5.44096e-06
1.61571e-07
5.4455e-06
1.58144e-07
1.5267e-07
5.44843e-06
5.70514e-06
-8.50903e-08
5.71288e-06
-1.06492e-07
5.70808e-06
-3.50118e-09
5.70333e-06
-5.63429e-08
5.71443e-06
9.80093e-08
5.71347e-06
4.13526e-08
5.7212e-06
7.21853e-10
5.71594e-06
-7.21846e-08
5.70162e-06
-1.80363e-07
5.69514e-06
-9.94271e-08
5.68433e-06
-5.02998e-08
5.67956e-06
-1.44718e-09
5.68293e-06
1.13214e-07
5.68328e-06
1.49581e-07
5.68941e-06
1.59121e-07
5.69686e-06
1.83724e-07
5.69846e-06
1.77224e-07
5.70102e-06
1.59012e-07
5.70549e-06
1.53666e-07
1.49128e-07
5.70904e-06
5.9786e-06
-7.44971e-08
5.98538e-06
-1.13276e-07
5.98186e-06
1.92088e-11
5.97673e-06
-5.12136e-08
5.98798e-06
8.6762e-08
5.98673e-06
4.26078e-08
5.99343e-06
-5.98317e-09
5.98896e-06
-6.77115e-08
5.97386e-06
-1.65263e-07
5.96715e-06
-9.2718e-08
5.95702e-06
-4.01662e-08
5.95149e-06
4.07438e-09
5.95503e-06
1.0968e-07
5.95607e-06
1.48537e-07
5.96139e-06
1.53806e-07
5.96907e-06
1.76041e-07
5.9714e-06
1.74892e-07
5.97364e-06
1.56768e-07
5.97799e-06
1.4932e-07
1.45234e-07
5.98188e-06
6.26522e-06
-6.4225e-08
6.27091e-06
-1.18968e-07
6.26868e-06
2.24807e-09
6.26319e-06
-4.57207e-08
6.27468e-06
7.52725e-08
6.27314e-06
4.41434e-08
6.27853e-06
-1.13723e-08
6.27485e-06
-6.40291e-08
6.25899e-06
-1.49407e-07
6.25159e-06
-8.53126e-08
6.24247e-06
-3.10489e-08
6.23669e-06
9.85007e-09
6.24022e-06
1.06156e-07
6.24195e-06
1.46806e-07
6.2466e-06
1.49153e-07
6.25431e-06
1.68329e-07
6.25743e-06
1.71778e-07
6.25944e-06
1.54752e-07
6.2636e-06
1.45161e-07
1.41162e-07
6.26767e-06
6.56561e-06
-5.43701e-08
6.57008e-06
-1.23435e-07
6.56918e-06
3.14684e-09
6.56325e-06
-3.97877e-08
6.57506e-06
6.34597e-08
6.57346e-06
4.57438e-08
6.57709e-06
-1.50049e-08
6.57422e-06
-6.11564e-08
6.55787e-06
-1.33056e-07
6.54941e-06
-7.6849e-08
6.54145e-06
-2.30909e-08
6.53587e-06
1.54346e-08
6.53922e-06
1.02803e-07
6.54153e-06
1.44498e-07
6.54564e-06
1.45038e-07
6.55321e-06
1.60756e-07
6.55714e-06
1.67856e-07
6.55904e-06
1.5285e-07
6.56294e-06
1.41263e-07
1.36979e-07
6.56712e-06
6.88045e-06
-4.50338e-08
6.88356e-06
-1.26541e-07
6.88403e-06
2.67222e-09
6.87759e-06
-3.33488e-08
6.88971e-06
5.13452e-08
6.88846e-06
4.69976e-08
6.88993e-06
-1.64783e-08
6.88766e-06
-5.88831e-08
6.87144e-06
-1.16844e-07
6.86183e-06
-6.72405e-08
6.85476e-06
-1.60123e-08
6.84962e-06
2.05685e-08
6.85275e-06
9.96716e-08
6.85548e-06
1.41768e-07
6.85913e-06
1.41392e-07
6.86644e-06
1.53445e-07
6.87116e-06
1.63138e-07
6.87309e-06
1.50913e-07
6.87664e-06
1.37713e-07
1.32722e-07
6.8809e-06
7.21042e-06
-3.63196e-08
7.21202e-06
-1.28141e-07
7.21392e-06
7.78168e-10
7.20692e-06
-2.63544e-08
7.2192e-06
3.9063e-08
7.21888e-06
4.73244e-08
7.21792e-06
-1.55222e-08
7.21577e-06
-5.67316e-08
7.20034e-06
-1.01415e-07
7.18976e-06
-5.66547e-08
7.18304e-06
-9.29586e-09
7.17854e-06
2.50636e-08
7.1815e-06
9.6717e-08
7.18454e-06
1.38727e-07
7.18775e-06
1.38178e-07
7.19469e-06
1.46509e-07
7.20011e-06
1.57716e-07
7.2023e-06
1.48727e-07
7.20545e-06
1.34558e-07
1.2847e-07
7.2097e-06
7.55624e-06
-2.83309e-08
7.55619e-06
-1.28092e-07
7.55951e-06
-2.54129e-09
7.55202e-06
-1.88682e-08
7.56405e-06
2.70352e-08
7.56539e-06
4.59803e-08
7.56201e-06
-1.21338e-08
7.55923e-06
-5.39559e-08
7.54516e-06
-8.73451e-08
7.53394e-06
-4.54323e-08
7.52713e-06
-2.49325e-09
7.52322e-06
2.89762e-08
7.52612e-06
9.38156e-08
7.52944e-06
1.35409e-07
7.53233e-06
1.35294e-07
7.53868e-06
1.40152e-07
7.54469e-06
1.51713e-07
7.54733e-06
1.46088e-07
7.55013e-06
1.31757e-07
1.24361e-07
7.55424e-06
7.91865e-06
-2.11671e-08
7.91681e-06
-1.2626e-07
7.92152e-06
-7.24896e-09
7.91372e-06
-1.10677e-08
7.92485e-06
1.5911e-08
7.92837e-06
4.24543e-08
7.92306e-06
-6.81874e-09
7.91895e-06
-4.98474e-08
7.90637e-06
-7.47618e-08
7.89507e-06
-3.41385e-08
7.88795e-06
4.63025e-09
7.88435e-06
3.25711e-08
7.88733e-06
9.08368e-08
7.89093e-06
1.31809e-07
7.89359e-06
1.3264e-07
7.89928e-06
1.34458e-07
7.90561e-06
1.45378e-07
7.90885e-06
1.4285e-07
7.91146e-06
1.29151e-07
1.20523e-07
7.9153e-06
8.29843e-06
-1.492e-08
8.29471e-06
-1.22539e-07
8.30074e-06
-1.32766e-08
8.29282e-06
-3.14932e-09
8.30235e-06
6.37916e-09
8.30814e-06
3.66723e-08
8.30176e-06
-4.45245e-10
8.29582e-06
-4.3906e-08
8.28461e-06
-6.35471e-08
8.27381e-06
-2.33416e-08
8.26639e-06
1.20517e-08
8.26279e-06
3.61731e-08
8.26582e-06
8.78028e-08
8.26977e-06
1.27863e-07
8.27233e-06
1.30074e-07
8.27733e-06
1.29457e-07
8.28375e-06
1.38964e-07
8.28759e-06
1.39009e-07
8.2902e-06
1.26543e-07
1.16997e-07
8.29372e-06
8.69641e-06
-9.66548e-09
8.69077e-06
-1.16899e-07
8.69793e-06
-2.044e-08
8.69016e-06
4.62244e-09
8.69736e-06
-8.20313e-10
8.70511e-06
2.89237e-08
8.69864e-06
6.01824e-09
8.6907e-06
-3.59571e-08
8.68062e-06
-5.34748e-08
8.67085e-06
-1.35711e-08
8.66332e-06
1.9585e-08
8.65944e-06
4.00485e-08
8.66239e-06
8.48576e-08
8.66674e-06
1.23507e-07
8.66936e-06
1.27455e-07
8.6737e-06
1.25119e-07
8.67999e-06
1.32676e-07
8.68435e-06
1.34643e-07
8.68711e-06
1.23783e-07
1.13715e-07
8.6904e-06
9.11341e-06
-5.45205e-09
9.10593e-06
-1.09425e-07
9.11387e-06
-2.83795e-08
9.10674e-06
1.17545e-08
9.11061e-06
-4.69487e-09
9.11977e-06
1.97624e-08
9.11413e-06
1.16648e-08
9.10449e-06
-2.6317e-08
9.09524e-06
-4.42289e-08
9.08692e-06
-5.25084e-09
9.07959e-06
2.69215e-08
9.07533e-06
4.43055e-08
9.07794e-06
8.22484e-08
9.08266e-06
1.18783e-07
9.08552e-06
1.24602e-07
9.08927e-06
1.21366e-07
9.09526e-06
1.26688e-07
9.10004e-06
1.29854e-07
9.10302e-06
1.20808e-07
1.10572e-07
9.10616e-06
9.5503e-06
-2.28942e-09
9.54123e-06
-1.00361e-07
9.54937e-06
-3.65146e-08
9.54353e-06
1.75906e-08
9.54348e-06
-4.64601e-09
9.55282e-06
1.04225e-08
9.54893e-06
1.55608e-08
9.53838e-06
-1.57679e-08
9.52946e-06
-3.53157e-08
9.52273e-06
1.48208e-09
9.51606e-06
3.35962e-08
9.51143e-06
4.89295e-08
9.51345e-06
8.0229e-08
9.51839e-06
1.13847e-07
9.52164e-06
1.21354e-07
9.52497e-06
1.18032e-07
9.53051e-06
1.21148e-07
9.53559e-06
1.24769e-07
9.53882e-06
1.17581e-07
1.07497e-07
9.5419e-06
1.0008e-05
-1.44012e-10
9.99767e-06
-9.0042e-08
1.00054e-05
-4.42144e-08
1.00014e-05
2.15381e-08
9.99767e-06
-8.88728e-10
1.00057e-05
2.40228e-09
1.00045e-05
1.67394e-08
9.99374e-06
-4.99603e-09
9.98446e-06
-2.60449e-08
9.9791e-06
6.84467e-09
9.97352e-06
3.91784e-08
9.96874e-06
5.37067e-08
9.97002e-06
7.89498e-08
9.97491e-06
1.08956e-07
9.97858e-06
1.17684e-07
9.98173e-06
1.14883e-07
9.98675e-06
1.16127e-07
9.99197e-06
1.19556e-07
9.99548e-06
1.14067e-07
1.04447e-07
9.99853e-06
1.04874e-05
1.06248e-09
1.04763e-05
-7.88708e-08
1.04829e-05
-5.08826e-08
1.04813e-05
2.3204e-08
1.04747e-05
5.67926e-09
1.04802e-05
-3.11074e-09
1.04818e-05
1.51532e-08
1.04717e-05
5.13237e-09
1.04616e-05
-1.59621e-08
1.0457e-05
1.14314e-08
1.04528e-05
4.34201e-08
1.04482e-05
5.8238e-08
1.04487e-05
7.84283e-08
1.04533e-05
1.04387e-07
1.04573e-05
1.13688e-07
1.04605e-05
1.11699e-07
1.0465e-05
1.11574e-07
1.04702e-05
1.14392e-07
1.0474e-05
1.10283e-07
1.01365e-07
1.04771e-05
1.09896e-05
1.45722e-09
1.0978e-05
-6.72524e-08
1.09831e-05
-5.59989e-08
1.0984e-05
2.23734e-08
1.09758e-05
1.38786e-08
1.09779e-05
-5.24808e-09
1.09815e-05
1.15236e-08
1.09731e-05
1.35743e-08
1.09622e-05
-5.04266e-09
1.09576e-05
1.60187e-08
1.09547e-05
4.63312e-08
1.09508e-05
6.20935e-08
1.09507e-05
7.85067e-08
1.09547e-05
1.00383e-07
1.09589e-05
1.09501e-07
1.09622e-05
1.08401e-07
1.09664e-05
1.07356e-07
1.09714e-05
1.09387e-07
1.09754e-05
1.06316e-07
9.81837e-08
1.09786e-05
1.15156e-05
1.21286e-09
1.15039e-05
-5.5592e-08
1.15071e-05
-5.91349e-08
1.15103e-05
1.91131e-08
1.15017e-05
2.25063e-08
1.15003e-05
-3.79318e-09
1.15047e-05
7.10136e-09
1.14987e-05
1.95719e-08
1.14874e-05
6.23152e-09
1.14822e-05
2.12314e-08
1.14803e-05
4.82478e-08
1.14774e-05
6.49787e-08
1.1477e-05
7.88988e-08
1.14804e-05
9.70281e-08
1.14845e-05
1.05314e-07
1.1488e-05
1.04984e-07
1.1492e-05
1.03361e-07
1.14968e-05
1.0456e-07
1.15008e-05
1.02267e-07
9.48992e-08
1.15041e-05
1.20665e-05
5.43782e-10
1.20552e-05
-4.43121e-08
1.2056e-05
-5.99593e-08
1.20614e-05
1.37837e-08
1.20535e-05
3.0399e-08
1.20487e-05
1.01432e-09
1.20525e-05
3.27733e-09
1.20492e-05
2.28368e-08
1.20385e-05
1.69743e-08
1.20323e-05
2.73879e-08
1.20308e-05
4.9754e-08
1.2029e-05
6.68003e-08
1.20286e-05
7.92458e-08
1.20314e-05
9.42568e-08
1.20354e-05
1.01328e-07
1.20389e-05
1.01466e-07
1.20427e-05
9.95546e-08
1.20474e-05
9.98962e-08
1.20515e-05
9.81668e-08
9.15877e-08
1.20548e-05
1.26434e-05
-3.05906e-10
1.2633e-05
-3.38402e-08
1.26313e-05
-5.82427e-08
1.2638e-05
7.02038e-09
1.26318e-05
3.66199e-08
1.26244e-05
8.4148e-09
1.26264e-05
1.31921e-09
1.26256e-05
2.36221e-08
1.26163e-05
2.62238e-08
1.26093e-05
3.43736e-08
1.26076e-05
5.14551e-08
1.26067e-05
6.77217e-08
1.26068e-05
7.92025e-08
1.26091e-05
9.19483e-08
1.26128e-05
9.76378e-08
1.26163e-05
9.78902e-08
1.262e-05
9.59231e-08
1.26244e-05
9.54233e-08
1.26286e-05
9.39694e-08
8.83251e-08
1.26319e-05
1.32477e-05
-1.08432e-09
1.32385e-05
-2.4648e-08
1.32341e-05
-5.38456e-08
1.32414e-05
-2.29208e-10
1.32376e-05
4.04155e-08
1.32286e-05
1.73852e-08
1.32279e-05
1.97746e-09
1.32288e-05
2.27483e-08
1.32218e-05
3.32533e-08
1.32145e-05
4.16359e-08
1.32122e-05
5.37358e-08
1.32119e-05
6.81177e-08
1.32124e-05
7.86585e-08
1.32145e-05
8.98146e-08
1.32178e-05
9.43214e-08
1.32214e-05
9.43098e-08
1.32249e-05
9.24129e-08
1.32291e-05
9.12311e-08
1.32334e-05
8.96532e-08
8.50744e-08
1.32367e-05
1.38806e-05
-1.56607e-09
1.3873e-05
-1.70303e-08
1.38662e-05
-4.69941e-08
1.38727e-05
-6.71147e-09
1.38718e-05
4.1288e-08
1.38624e-05
2.67713e-08
1.3859e-05
5.37931e-09
1.38603e-05
2.14304e-08
1.38559e-05
3.77073e-08
1.38491e-05
4.84176e-08
1.38462e-05
5.66652e-08
1.38459e-05
6.84122e-08
1.38468e-05
7.77076e-08
1.38491e-05
8.75676e-08
1.38521e-05
9.13162e-08
1.38555e-05
9.0857e-08
1.3859e-05
8.89138e-08
1.38629e-05
8.73817e-08
1.38672e-05
8.53209e-08
8.16832e-08
1.38706e-05
1.45437e-05
-1.59313e-09
1.45376e-05
-1.09665e-08
1.45289e-05
-3.8238e-08
1.45336e-05
-1.14163e-08
1.45355e-05
3.93239e-08
1.4527e-05
3.53566e-08
1.45212e-05
1.11619e-08
1.45217e-05
2.08669e-08
1.45197e-05
3.97828e-08
1.45142e-05
5.39121e-08
1.45108e-05
6.00616e-08
1.45102e-05
6.89372e-08
1.45114e-05
7.65268e-08
1.45138e-05
8.51778e-08
1.45167e-05
8.83937e-08
1.452e-05
8.76435e-08
1.45235e-05
8.5386e-08
1.45271e-05
8.37922e-08
1.45312e-05
8.11803e-08
7.80207e-08
1.45349e-05
1.52384e-05
-1.10285e-09
1.52338e-05
-6.34464e-09
1.5224e-05
-2.84377e-08
1.52261e-05
-1.35493e-08
1.52302e-05
3.51873e-08
1.52234e-05
4.21697e-08
1.5216e-05
1.85731e-08
1.5215e-05
2.18633e-08
1.52145e-05
4.02518e-08
1.52108e-05
5.76119e-08
1.52074e-05
6.34629e-08
1.52066e-05
6.97908e-08
1.52078e-05
7.53543e-08
1.52102e-05
8.27049e-08
1.52132e-05
8.54037e-08
1.52163e-05
8.46175e-08
1.52197e-05
8.19241e-08
1.52232e-05
8.02857e-08
1.5227e-05
7.73994e-08
7.41536e-08
1.52309e-05
1.59663e-05
-1.19655e-10
1.59629e-05
-2.93221e-09
1.5953e-05
-1.84871e-08
1.59523e-05
-1.28643e-08
1.59575e-05
3.00039e-08
1.5953e-05
4.66259e-08
1.5945e-05
2.66373e-08
1.59421e-05
2.46997e-08
1.59422e-05
4.01471e-08
1.59404e-05
5.94877e-08
1.59376e-05
6.62368e-08
1.59364e-05
7.09364e-08
1.59374e-05
7.44049e-08
1.59399e-05
8.02163e-08
1.59429e-05
8.23728e-08
1.59459e-05
8.16253e-08
1.59492e-05
7.86132e-08
1.59527e-05
7.6748e-08
1.59562e-05
7.39331e-08
7.03292e-08
1.596e-05
1.67292e-05
1.2535e-09
1.67266e-05
-3.39158e-10
1.67173e-05
-9.19913e-09
1.67141e-05
-9.63294e-09
1.67191e-05
2.5051e-08
1.67171e-05
4.86237e-08
1.67093e-05
3.43845e-08
1.67049e-05
2.91418e-08
1.67046e-05
4.04523e-08
1.67042e-05
5.98684e-08
1.67025e-05
6.79415e-08
1.67013e-05
7.21369e-08
1.6702e-05
7.36991e-08
1.67043e-05
7.78794e-08
1.67074e-05
7.93384e-08
1.67104e-05
7.86025e-08
1.67136e-05
7.54465e-08
1.67171e-05
7.32044e-08
1.67204e-05
7.0592e-08
6.67692e-08
1.6724e-05
1.75287e-05
2.8645e-09
1.75267e-05
1.7291e-09
1.75186e-05
-1.1163e-09
1.75134e-05
-4.42148e-09
1.7517e-05
2.14301e-08
1.7517e-05
4.85831e-08
1.75105e-05
4.09741e-08
1.75049e-05
3.46804e-08
1.75037e-05
4.16925e-08
1.75041e-05
5.94023e-08
1.75035e-05
6.85447e-08
1.75027e-05
7.29307e-08
1.75032e-05
7.32425e-08
1.75053e-05
7.57656e-08
1.75083e-05
7.63492e-08
1.75113e-05
7.55791e-08
1.75144e-05
7.23611e-08
1.75179e-05
6.97345e-08
1.75213e-05
6.7213e-08
6.34855e-08
1.75245e-05
1.83667e-05
4.55063e-09
1.83647e-05
3.66863e-09
1.83581e-05
5.47488e-09
1.83517e-05
1.96399e-09
1.83535e-05
1.97116e-08
1.83548e-05
4.72946e-08
1.83497e-05
4.60121e-08
1.83438e-05
4.05947e-08
1.83416e-05
4.39104e-08
1.83421e-05
5.88521e-08
1.83425e-05
6.8223e-08
1.83423e-05
7.30454e-08
1.83427e-05
7.28608e-08
1.83446e-05
7.38953e-08
1.83474e-05
7.34984e-08
1.83505e-05
7.25317e-08
1.83535e-05
6.93534e-08
1.83568e-05
6.63824e-08
1.83603e-05
6.37726e-08
6.0332e-08
1.83634e-05
1.92448e-05
6.18333e-09
1.92427e-05
5.73947e-09
1.92375e-05
1.07026e-08
1.92308e-05