/*--------------------------------*- C++ -*----------------------------------*\
| =========                 |                                                 |
| \\      /  F ield         | OpenFOAM: The Open Source CFD Toolbox           |
|  \\    /   O peration     | Version:  2506                                  |
|   \\  /    A nd           | Website:  www.openfoam.com                      |
|    \\/     M anipulation  |                                                 |
\*---------------------------------------------------------------------------*/
FoamFile
{
    version     2.0;
    format      ascii;
    arch        "LSB;label=32;scalar=64";
    class       volVectorField;
    location    "1.45";
    object      U;
}
// * * * * * * * * * * * * * * * * * * * * * * * * * * * * * * * * * * * * * //

dimensions      [0 1 -1 0 0 0 0];

internalField   nonuniform List<vector> 
9600
(
(0.860254 -0.00296732 0)
(1.13886 0.00105138 0)
(0.861607 -0.00196573 0)
(1.14801 0.00110187 0)
(0.910274 0.00202819 0)
(1.10552 0.000224394 0)
(0.852502 0.00384225 0)
(1.13764 -0.00400724 0)
(0.872083 -0.00935633 0)
(1.13952 -0.00414034 0)
(0.93099 -0.00437064 0)
(1.11954 -0.000881826 0)
(0.939727 0.00595555 0)
(1.10245 0.00387136 0)
(0.920801 0.0175472 0)
(1.09657 0.00113346 0)
(0.888703 0.0127129 0)
(1.09481 -0.00356118 0)
(0.85314 0.00885246 0)
(1.0919 -0.00493801 0)
(0.87133 -0.00303519 0)
(1.12862 0.00118317 0)
(0.876776 -0.00220474 0)
(1.13687 0.000837293 0)
(0.924895 0.00221727 0)
(1.09299 0.00122967 0)
(0.875499 0.00329652 0)
(1.11378 -0.0040613 0)
(0.8975 -0.00963836 0)
(1.1162 -0.00477447 0)
(0.953678 -0.00432232 0)
(1.09836 -0.000821602 0)
(0.965171 0.00598718 0)
(1.07363 0.00443576 0)
(0.957805 0.017304 0)
(1.05018 0.00239797 0)
(0.949117 0.0127565 0)
(1.02182 -0.00302499 0)
(0.951206 0.0101792 0)
(0.980907 -0.00577732 0)
(0.89115 -0.00309487 0)
(1.10832 0.00126038 0)
(0.902901 -0.00243453 0)
(1.11486 0.000596768 0)
(0.949552 0.00253379 0)
(1.07148 0.0017265 0)
(0.912747 0.0029325 0)
(1.07983 -0.00411876 0)
(0.934295 -0.00984865 0)
(1.0795 -0.00538489 0)
(0.98518 -0.00416774 0)
(1.06712 -0.000916594 0)
(0.996695 0.00631496 0)
(1.04248 0.00475586 0)
(0.992035 0.0176176 0)
(1.02295 0.00262898 0)
(0.986528 0.0128637 0)
(1.00265 -0.0023212 0)
(0.985939 0.00976134 0)
(0.984318 -0.00313119 0)
(0.916095 -0.00312691 0)
(1.08133 0.0012458 0)
(0.932772 -0.00258713 0)
(1.08626 0.000344914 0)
(0.975252 0.00282134 0)
(1.04742 0.00209577 0)
(0.950604 0.00281271 0)
(1.0471 -0.00426497 0)
(0.966299 -0.0099114 0)
(1.04457 -0.0059698 0)
(1.00784 -0.00408554 0)
(1.04261 -0.00105253 0)
(1.01545 0.00667076 0)
(1.02623 0.00496029 0)
(1.00889 0.0179058 0)
(1.01637 0.002826 0)
(1.00155 0.0132706 0)
(1.00358 -0.00219745 0)
(0.995968 0.010094 0)
(0.99346 -0.00178968 0)
(0.941602 -0.00312543 0)
(1.05331 0.0011676 0)
(0.9594 -0.00268947 0)
(1.05737 6.92718e-05 0)
(0.994412 0.00309467 0)
(1.02693 0.00234832 0)
(0.97917 0.00281271 0)
(1.02336 -0.00437891 0)
(0.985198 -0.00989731 0)
(1.02038 -0.00648679 0)
(1.01612 -0.00415039 0)
(1.02849 -0.00115828 0)
(1.02173 0.00687125 0)
(1.02096 0.00518124 0)
(1.01594 0.0179611 0)
(1.01685 0.00316411 0)
(1.00793 0.0133394 0)
(1.00636 -0.00170923 0)
(0.999971 0.0102159 0)
(0.997338 -0.00062205 0)
(0.963598 -0.00309193 0)
(1.02968 0.0010576 0)
(0.978711 -0.00276204 0)
(1.03338 -0.000171808 0)
(1.00426 0.00332396 0)
(1.0129 0.00248919 0)
(0.995937 0.00285632 0)
(1.01003 -0.00439447 0)
(0.992883 -0.00985736 0)
(1.00659 -0.00689387 0)
(1.01461 -0.00433036 0)
(1.01986 -0.00128219 0)
(1.02156 0.00693025 0)
(1.01943 0.00535276 0)
(1.01915 0.0179122 0)
(1.01851 0.00352197 0)
(1.01102 0.0132953 0)
(1.00836 -0.000989366 0)
(1.00199 0.0100192 0)
(0.99917 0.00069794 0)
(0.979831 -0.00303832 0)
(1.01332 0.000948128 0)
(0.990203 -0.00280782 0)
(1.01647 -0.000347176 0)
(1.00651 0.00347894 0)
(1.00482 0.00254305 0)
(1.0036 0.00290437 0)
(1.0043 -0.00432191 0)
(0.994983 -0.00978536 0)
(0.99931 -0.00719518 0)
(1.00929 -0.00455185 0)
(1.01273 -0.00146537 0)
(1.0183 0.00686105 0)
(1.01775 0.00543636 0)
(1.01997 0.0177932 0)
(1.01904 0.00390204 0)
(1.01205 0.0132648 0)
(1.00902 -0.000189405 0)
(1.00282 0.0097576 0)
(0.99992 0.00210962 0)
(0.990163 -0.0029789 0)
(1.00405 0.000860969 0)
(0.995735 -0.00282825 0)
(1.00603 -0.000458004 0)
(1.00474 0.00356194 0)
(1.00074 0.00253444 0)
(1.00607 0.00292958 0)
(1.00276 -0.00420331 0)
(0.995628 -0.0096679 0)
(0.99557 -0.00740139 0)
(1.00368 -0.00474823 0)
(1.00604 -0.00169528 0)
(1.01321 0.00668464 0)
(1.01444 0.00543207 0)
(1.01834 0.0176009 0)
(1.01755 0.00431484 0)
(1.01125 0.0131973 0)
(1.0083 0.000677972 0)
(1.00272 0.00948085 0)
(0.999918 0.00351797 0)
(0.995869 -0.00292308 0)
(0.999859 0.000799952 0)
(0.997765 -0.00282449 0)
(1.00022 -0.000518247 0)
(1.00195 0.00359217 0)
(0.998979 0.00247949 0)
(1.00621 0.0029237 0)
(1.00305 -0.00407813 0)
(0.996402 -0.00950561 0)
(0.993853 -0.00751452 0)
(0.999199 -0.00488128 0)
(1.00006 -0.00192568 0)
(1.00719 0.0064481 0)
(1.00949 0.00536463 0)
(1.0145 0.0173347 0)
(1.01427 0.00474231 0)
(1.00899 0.0130498 0)
(1.00661 0.00158412 0)
(1.00195 0.00914665 0)
(0.999474 0.00483547 0)
(0.998631 -0.00287408 0)
(0.998446 0.000758474 0)
(0.998198 -0.00279752 0)
(0.997237 -0.000545801 0)
(0.999648 0.00358647 0)
(0.998473 0.00239292 0)
(1.00552 0.00289136 0)
(1.00387 -0.00397094 0)
(0.997394 -0.00930659 0)
(0.993299 -0.00754185 0)
(0.996116 -0.00493479 0)
(0.995203 -0.00210931 0)
(1.00117 0.00620016 0)
(1.0038 0.00526563 0)
(1.00933 0.016995 0)
(1.01008 0.0051566 0)
(1.00597 0.0127996 0)
(1.00452 0.00249063 0)
(1.00092 0.00875311 0)
(0.998869 0.00603758 0)
(0.999825 -0.00283065 0)
(0.998176 0.000728033 0)
(0.998101 -0.00275054 0)
(0.995824 -0.000556029 0)
(0.998193 0.00355565 0)
(0.998589 0.00229042 0)
(1.00463 0.00283858 0)
(1.0046 -0.00389052 0)
(0.998295 -0.00908008 0)
(0.993292 -0.00749919 0)
(0.994245 -0.0049109 0)
(0.991688 -0.00221971 0)
(0.995966 0.00597169 0)
(0.998509 0.00516812 0)
(1.00404 0.0165763 0)
(1.00598 0.00554216 0)
(1.003 0.0124428 0)
(1.00254 0.00337014 0)
(0.999978 0.00832576 0)
(0.998321 0.00707085 0)
(1.0003 -0.00278984 0)
(0.998215 0.000701782 0)
(0.997922 -0.00268869 0)
(0.995241 -0.000558774 0)
(0.997423 0.00350782 0)
(0.998931 0.00218248 0)
(1.00382 0.0027749 0)
(1.00502 -0.00383386 0)
(0.998903 -0.00883613 0)
(0.993429 -0.00740416 0)
(0.99325 -0.00482696 0)
(0.989472 -0.00225402 0)
(0.992097 0.00577608 0)
(0.994406 0.00509492 0)
(0.999642 0.0160798 0)
(1.00266 0.00589477 0)
(1.00064 0.0119858 0)
(1.00101 0.00420713 0)
(0.999331 0.00789292 0)
(0.997955 0.00792114 0)
(1.0005 -0.00274893 0)
(0.998264 0.000675397 0)
(0.997792 -0.00261666 0)
(0.995072 -0.000559637 0)
(0.997084 0.0034494 0)
(0.999273 0.00207366 0)
(1.00319 0.00270883 0)
(1.00514 -0.00379365 0)
(0.999203 -0.00858195 0)
(0.993527 -0.0072744 0)
(0.992802 -0.00470705 0)
(0.988311 -0.00222007 0)
(0.989663 0.00560865 0)
(0.991779 0.00505273 0)
(0.996612 0.0155201 0)
(1.0004 0.00621674 0)
(0.999102 0.0114528 0)
(1 0.00498424 0)
(0.999038 0.00750716 0)
(0.997807 0.00857562 0)
(1.00058 -0.00270601 0)
(0.998265 0.000646386 0)
(0.997723 -0.00253734 0)
(0.995092 -0.000561812 0)
(0.996985 0.00338498 0)
(0.999518 0.00196613 0)
(1.00276 0.00264316 0)
(1.00505 -0.00376266 0)
(0.999286 -0.00832125 0)
(0.993558 -0.00712152 0)
(0.992657 -0.00457218 0)
(0.987876 -0.00213275 0)
(0.988427 0.00545326 0)
(0.990456 0.00504202 0)
(0.994908 0.0149111 0)
(0.999109 0.00651483 0)
(0.998308 0.0108884 0)
(0.999455 0.00568144 0)
(0.999033 0.00720137 0)
(0.997842 0.00903564 0)
(1.00063 -0.00265992 0)
(0.998236 0.000613253 0)
(0.9977 -0.00245202 0)
(0.995182 -0.00056716 0)
(0.997005 0.00331836 0)
(0.999656 0.00185933 0)
(1.0025 0.00257819 0)
(1.00486 -0.00373354 0)
(0.999254 -0.00805716 0)
(0.993559 -0.00695062 0)
(0.992668 -0.00443644 0)
(0.987862 -0.00201078 0)
(0.988005 0.00529617 0)
(0.990042 0.00505612 0)
(0.994182 0.0142721 0)
(0.998497 0.00679146 0)
(0.998024 0.0103288 0)
(0.999209 0.00629142 0)
(0.999203 0.00699684 0)
(0.997996 0.00932218 0)
(1.00065 -0.00260999 0)
(0.998196 0.000574954 0)
(0.997705 -0.002361 0)
(0.995288 -0.000576479 0)
(0.997075 0.00325188 0)
(0.999711 0.00175151 0)
(1.00235 0.00251446 0)
(1.00462 -0.00370125 0)
(0.999183 -0.00779314 0)
(0.993566 -0.00676221 0)
(0.992759 -0.00431004 0)
(0.988054 -0.00186561 0)
(0.988038 0.0051292 0)
(0.990135 0.00508407 0)
(0.994028 0.0136194 0)
(0.998257 0.0070488 0)
(0.998011 0.00980519 0)
(0.999115 0.0068161 0)
(0.999442 0.00689245 0)
(0.998208 0.00946403 0)
(1.00067 -0.00255596 0)
(0.998161 0.000530904 0)
(0.997726 -0.00226402 0)
(0.995392 -0.000590377 0)
(0.997158 0.00318682 0)
(0.999715 0.00164213 0)
(1.00225 0.00245042 0)
(1.00438 -0.00366181 0)
(0.999112 -0.00753271 0)
(0.993599 -0.0065557 0)
(0.992895 -0.00419855 0)
(0.988327 -0.00170321 0)
(0.988273 0.00494683 0)
(0.990445 0.00512284 0)
(0.994131 0.012958 0)
(0.998169 0.00728277 0)
(0.998099 0.0093382 0)
(0.999071 0.00725701 0)
(0.999679 0.00687718 0)
(0.998438 0.00949544 0)
(1.00068 -0.0024976 0)
(0.998135 0.000480451 0)
(0.99775 -0.00216038 0)
(0.995492 -0.000609252 0)
(0.997237 0.00312346 0)
(0.999696 0.00153216 0)
(1.00216 0.00238412 0)
(1.00415 -0.00361312 0)
(0.999054 -0.00727855 0)
(0.99366 -0.00632994 0)
(0.993058 -0.00410241 0)
(0.988628 -0.00153056 0)
(0.988572 0.0047489 0)
(0.990814 0.00516699 0)
(0.994309 0.012309 0)
(0.99811 0.00747214 0)
(0.998199 0.0089292 0)
(0.999032 0.00761561 0)
(0.999879 0.00693006 0)
(0.998667 0.00945123 0)
(1.00068 -0.0024347 0)
(0.998122 0.000422977 0)
(0.99777 -0.00204981 0)
(0.995591 -0.000632817 0)
(0.997308 0.00306181 0)
(0.999672 0.00142097 0)
(1.00208 0.00231325 0)
(1.00393 -0.00355466 0)
(0.999009 -0.00703401 0)
(0.993744 -0.00608395 0)
(0.993238 -0.00401655 0)
(0.98894 -0.00135483 0)
(0.988875 0.00455093 0)
(0.991177 0.00519533 0)
(0.994482 0.0116929 0)
(0.998037 0.00761304 0)
(0.998278 0.00858274 0)
(0.998987 0.00790259 0)
(1.00003 0.0070201 0)
(0.998892 0.00935173 0)
(1.00067 -0.00236733 0)
(0.998124 0.000358706 0)
(0.997783 -0.00193271 0)
(0.995696 -0.000660703 0)
(0.99737 0.00300209 0)
(0.999656 0.00130839 0)
(1.00198 0.00223762 0)
(1.00372 -0.00348468 0)
(0.998971 -0.0068039 0)
(0.993846 -0.00581811 0)
(0.993424 -0.00393953 0)
(0.989261 -0.00117853 0)
(0.989165 0.00436068 0)
(0.991521 0.00520033 0)
(0.994629 0.0111121 0)
(0.997946 0.00771987 0)
(0.998331 0.00828994 0)
(0.99894 0.00812634 0)
(1.00014 0.007131 0)
(0.999117 0.00921329 0)
(1.00065 -0.00229537 0)
(0.998141 0.00028719 0)
(0.997786 -0.00180815 0)
(0.995808 -0.000693368 0)
(0.997421 0.00294322 0)
(0.999653 0.00119774 0)
(1.00187 0.00215465 0)
(1.00351 -0.00340032 0)
(0.998934 -0.0065884 0)
(0.993963 -0.00553693 0)
(0.99361 -0.00387141 0)
(0.989595 -0.00100274 0)
(0.98944 0.0041798 0)
(0.991853 0.00517715 0)
(0.994756 0.0105731 0)
(0.997848 0.0077951 0)
(0.998366 0.00803701 0)
(0.998903 0.00829671 0)
(1.00021 0.00725989 0)
(0.999347 0.00904608 0)
(1.00062 -0.00221885 0)
(0.998174 0.00020858 0)
(0.99778 -0.00167695 0)
(0.99593 -0.000729093 0)
(0.997463 0.00288376 0)
(0.999665 0.00109109 0)
(1.00176 0.0020606 0)
(1.00332 -0.00329861 0)
(0.998895 -0.00638721 0)
(0.994093 -0.00523999 0)
(0.993792 -0.00380281 0)
(0.989945 -0.000840162 0)
(0.989703 0.00402147 0)
(0.992184 0.0051215 0)
(0.994875 0.0100762 0)
(0.997754 0.00784239 0)
(0.998394 0.00780838 0)
(0.998886 0.00841962 0)
(1.00025 0.00740915 0)
(0.99958 0.00885887 0)
(1.00058 -0.00213787 0)
(0.998219 0.000123353 0)
(0.997768 -0.00154017 0)
(0.996061 -0.000767036 0)
(0.997497 0.00282313 0)
(0.99969 0.000989416 0)
(1.00164 0.00195759 0)
(1.00313 -0.00317904 0)
(0.998852 -0.00620059 0)
(0.994234 -0.00492897 0)
(0.993969 -0.00372656 0)
(0.990311 -0.000700656 0)
(0.98996 0.00389661 0)
(0.992518 0.00504309 0)
(0.994996 0.00960734 0)
(0.997668 0.00787266 0)
(0.99842 0.00759447 0)
(0.998893 0.00848596 0)
(1.00027 0.00757624 0)
(0.999813 0.00866474 0)
(1.00054 -0.00205226 0)
(0.998273 3.13633e-05 0)
(0.997754 -0.00139745 0)
(0.9962 -0.000806586 0)
(0.997526 0.00275803 0)
(0.999723 0.000895958 0)
(1.00152 0.00183909 0)
(1.00295 -0.0030409 0)
(0.998808 -0.00602485 0)
(0.994385 -0.004617 0)
(0.994141 -0.00363948 0)
(0.990692 -0.00058484 0)
(0.990214 0.003807 0)
(0.992853 0.00494623 0)
(0.995129 0.00916104 0)
(0.997593 0.00789286 0)
(0.998448 0.00740809 0)
(0.998928 0.00849506 0)
(1.00026 0.0077545 0)
(1.00004 0.00847625 0)
(1.00049 -0.00196248 0)
(0.998332 -6.6438e-05 0)
(0.99774 -0.00125095 0)
(0.996343 -0.000845788 0)
(0.997553 0.0026876 0)
(0.999759 0.000813643 0)
(1.0014 0.00170475 0)
(1.00277 -0.00288606 0)
(0.998766 -0.00585577 0)
(0.99454 -0.00430994 0)
(0.994311 -0.00353326 0)
(0.991085 -0.00050076 0)
(0.99047 0.00374346 0)
(0.993186 0.0048387 0)
(0.995281 0.00872963 0)
(0.997529 0.00790864 0)
(0.998479 0.00725906 0)
(0.998989 0.00844257 0)
(1.00025 0.00792544 0)
(1.00024 0.0083064 0)
(1.00045 -0.00186852 0)
(0.998393 -0.000169642 0)
(0.997732 -0.00110305 0)
(0.996486 -0.000882186 0)
(0.997583 0.00261006 0)
(0.999789 0.00074351 0)
(1.00128 0.00155838 0)
(1.00259 -0.00271864 0)
(0.99873 -0.00569087 0)
(0.994698 -0.0040097 0)
(0.994482 -0.00339587 0)
(0.991486 -0.000447571 0)
(0.990732 0.00369715 0)
(0.99351 0.00473258 0)
(0.995455 0.0083028 0)
(0.997475 0.00791683 0)
(0.99851 0.00714576 0)
(0.999072 0.0083302 0)
(1.00023 0.00807389 0)
(1.00042 0.00816807 0)
(1.00041 -0.00177053 0)
(0.998452 -0.000277636 0)
(0.997729 -0.000955056 0)
(0.996626 -0.000912721 0)
(0.99762 0.00252216 0)
(0.999811 0.00068717 0)
(1.00118 0.00139881 0)
(1.00241 -0.00254179 0)
(0.998701 -0.00552383 0)
(0.994856 -0.00372321 0)
(0.994655 -0.0032302 0)
(0.991889 -0.000415301 0)
(0.991005 0.00366177 0)
(0.99382 0.00463977 0)
(0.995655 0.00788262 0)
(0.997435 0.00791132 0)
(0.998539 0.00706741 0)
(0.999175 0.00817073 0)
(1.00021 0.00818984 0)
(1.00057 0.00807304 0)
(1.00038 -0.00166922 0)
(0.998511 -0.000388711 0)
(0.997734 -0.000808515 0)
(0.996761 -0.000936013 0)
(0.997664 0.00242339 0)
(0.999823 0.000646485 0)
(1.00108 0.00122836 0)
(1.00221 -0.00236146 0)
(0.998682 -0.00534802 0)
(0.995013 -0.00346077 0)
(0.994831 -0.00304045 0)
(0.992292 -0.00039943 0)
(0.991291 0.00363008 0)
(0.994113 0.00456679 0)
(0.995878 0.00747234 0)
(0.997412 0.00788344 0)
(0.998562 0.00702099 0)
(0.999292 0.00797289 0)
(1.00021 0.00825284 0)
(1.00068 0.00802754 0)
(1.00035 -0.00156447 0)
(0.99857 -0.000502173 0)
(0.997745 -0.000667647 0)
(0.996892 -0.000948582 0)
(0.997718 0.00231207 0)
(0.999823 0.000619563 0)
(1.001 0.00104986 0)
(1.00202 -0.00218343 0)
(0.99867 -0.005161 0)
(0.99517 -0.00322406 0)
(0.995009 -0.00282428 0)
(0.992695 -0.00039626 0)
(0.991591 0.00359468 0)
(0.994387 0.00451635 0)
(0.996122 0.00707488 0)
(0.997411 0.0078228 0)
(0.998577 0.0070052 0)
(0.99942 0.00775445 0)
(1.00023 0.008247 0)
(1.00075 0.00803378 0)
(1.00032 -0.00145741 0)
(0.998631 -0.000615995 0)
(0.997763 -0.000535236 0)
(0.997017 -0.000948725 0)
(0.997781 0.00218887 0)
(0.999816 0.000603737 0)
(1.00092 0.000869494 0)
(1.00182 -0.00201142 0)
(0.998665 -0.00495998 0)
(0.995329 -0.00301119 0)
(0.995188 -0.00258555 0)
(0.993096 -0.00039449 0)
(0.991907 0.00355392 0)
(0.994644 0.00449106 0)
(0.996381 0.00669948 0)
(0.997438 0.00772577 0)
(0.998583 0.00701574 0)
(0.999549 0.00753977 0)
(1.00028 0.00816269 0)
(1.0008 0.00806436 0)
(1.0003 -0.0013482 0)
(0.998695 -0.000728781 0)
(0.997787 -0.000413354 0)
(0.997138 -0.000935553 0)
(0.99785 0.0020549 0)
(0.999802 0.000597093 0)
(1.00084 0.0006908 0)
(1.00162 -0.00184998 0)
(0.998664 -0.00474232 0)
(0.99549 -0.00282157 0)
(0.995366 -0.00233396 0)
(0.993494 -0.000382071 0)
(0.99224 0.0034985 0)
(0.994885 0.00448737 0)
(0.996648 0.0063566 0)
(0.997497 0.00758947 0)
(0.998582 0.00703336 0)
(0.999671 0.00734674 0)
(1.00036 0.00801375 0)
(1.00084 0.00808026 0)
(1.00028 -0.00123783 0)
(0.998764 -0.000837911 0)
(0.997816 -0.000304753 0)
(0.997254 -0.000908939 0)
(0.997925 0.00191336 0)
(0.999785 0.000597137 0)
(1.00078 0.000519294 0)
(1.00143 -0.00170362 0)
(0.998664 -0.00450711 0)
(0.995656 -0.00264967 0)
(0.995544 -0.0020778 0)
(0.993889 -0.000352752 0)
(0.99259 0.00342535 0)
(0.995115 0.0044972 0)
(0.996918 0.00604836 0)
(0.997589 0.00741455 0)
(0.998579 0.00704149 0)
(0.99978 0.00717925 0)
(1.00046 0.00782382 0)
(1.00088 0.00804747 0)
(1.00026 -0.00112684 0)
(0.998836 -0.000941872 0)
(0.997852 -0.000211005 0)
(0.997367 -0.000869049 0)
(0.998004 0.00176644 0)
(0.999765 0.000603972 0)
(1.00071 0.000357405 0)
(1.00124 -0.0015703 0)
(0.998667 -0.00425749 0)
(0.995828 -0.00249504 0)
(0.995722 -0.00181494 0)
(0.994278 -0.000295466 0)
(0.992955 0.00334389 0)
(0.995338 0.00451286 0)
(0.997183 0.00577383 0)
(0.997712 0.00720694 0)
(0.99858 0.00703373 0)
(0.999872 0.00703427 0)
(1.00058 0.00761495 0)
(1.00094 0.00795266 0)
(1.00024 -0.00101609 0)
(0.998912 -0.00103955 0)
(0.997896 -0.000131211 0)
(0.997478 -0.000818922 0)
(0.998087 0.00161722 0)
(0.999743 0.00061418 0)
(1.00065 0.00020462 0)
(1.00106 -0.0014497 0)
(0.99867 -0.0039928 0)
(0.996006 -0.00235358 0)
(0.995901 -0.00154963 0)
(0.994659 -0.000215796 0)
(0.993334 0.00325639 0)
(0.995554 0.00452553 0)
(0.99744 0.00553507 0)
(0.997864 0.0069738 0)
(0.998589 0.00700952 0)
(0.999947 0.00691193 0)
(1.00071 0.00740752 0)
(1.00102 0.00780724 0)
(1.00022 -0.000906547 0)
(0.998991 -0.00112856 0)
(0.997946 -6.65669e-05 0)
(0.997586 -0.000760059 0)
(0.998172 0.0014631 0)
(0.999718 0.000628947 0)
(1.0006 6.63284e-05 0)
(1.0009 -0.00134696 0)
(0.998673 -0.00371083 0)
(0.996191 -0.00222048 0)
(0.996083 -0.00129203 0)
(0.995032 -0.000107402 0)
(0.993725 0.0031652 0)
(0.995768 0.00452487 0)
(0.997684 0.00532546 0)
(0.998041 0.00671751 0)
(0.998611 0.00696353 0)
(1 0.00680478 0)
(1.00084 0.00720365 0)
(1.00112 0.00762626 0)
(1.0002 -0.000798729 0)
(0.999073 -0.00120795 0)
(0.998004 -1.65174e-05 0)
(0.997691 -0.00069673 0)
(0.998261 0.00130536 0)
(0.999692 0.000647445 0)
(1.00054 -5.65041e-05 0)
(1.00075 -0.00125779 0)
(0.998676 -0.00341359 0)
(0.996382 -0.00208279 0)
(0.996271 -0.00105392 0)
(0.995395 3.25542e-05 0)
(0.994123 0.00307694 0)
(0.99598 0.00450256 0)
(0.997915 0.0051373 0)
(0.998241 0.00644499 0)
(0.99865 0.00688826 0)
(1.00004 0.00670514 0)
(1.00096 0.00700147 0)
(1.00125 0.00742841 0)
(1.00017 -0.000693533 0)
(0.999156 -0.0012759 0)
(0.99807 1.66396e-05 0)
(0.997794 -0.000628823 0)
(0.998354 0.00114559 0)
(0.999666 0.000668916 0)
(1.00048 -0.000161852 0)
(1.00062 -0.00118621 0)
(0.998681 -0.00310162 0)
(0.996575 -0.00192895 0)
(0.996466 -0.000831088 0)
(0.995749 0.000186962 0)
(0.994524 0.00299388 0)
(0.996191 0.00446084 0)
(0.998129 0.00496925 0)
(0.998459 0.00616603 0)
(0.998711 0.00678471 0)
(1.00007 0.00661765 0)
(1.00107 0.00680446 0)
(1.00138 0.00722438 0)
(1.00016 -0.000592441 0)
(0.999241 -0.0013306 0)
(0.998145 3.42291e-05 0)
(0.997893 -0.000555436 0)
(0.99845 0.000978625 0)
(0.999642 0.000696181 0)
(1.00042 -0.000239172 0)
(1.0005 -0.00113699 0)
(0.998691 -0.00277858 0)
(0.996771 -0.0017595 0)
(0.996668 -0.00063097 0)
(0.996094 0.000338773 0)
(0.994925 0.00291128 0)
(0.996402 0.00440213 0)
(0.998327 0.00481944 0)
(0.998691 0.00588643 0)
(0.998797 0.00665393 0)
(1.00009 0.00654465 0)
(1.00117 0.00661674 0)
(1.00152 0.00701405 0)
(1.00014 -0.000496025 0)
(0.999326 -0.00137188 0)
(0.998227 3.83592e-05 0)
(0.997989 -0.000476331 0)
(0.99855 0.000807329 0)
(0.999623 0.000719756 0)
(1.00036 -0.00027784 0)
(1.0004 -0.00110101 0)
(0.998707 -0.00245506 0)
(0.996964 -0.00156278 0)
(0.996874 -0.000459408 0)
(0.996429 0.000466595 0)
(0.995325 0.00282556 0)
(0.996615 0.00433229 0)
(0.998509 0.00468939 0)
(0.998933 0.00560757 0)
(0.998913 0.0064847 0)
(1.00009 0.00647546 0)
(1.00125 0.00644469 0)
(1.00165 0.00679865 0)
(1.00012 -0.000404544 0)
(0.99941 -0.00139849 0)
(0.998319 2.52887e-05 0)
(0.99808 -0.000388514 0)
(0.998652 0.000631283 0)
(0.99961 0.000734781 0)
(1.0003 -0.000271933 0)
(1.00031 -0.00107067 0)
(0.998734 -0.00214521 0)
(0.997153 -0.00133461 0)
(0.997081 -0.000297857 0)
(0.996756 0.000577951 0)
(0.995726 0.00274097 0)
(0.996832 0.00425114 0)
(0.998672 0.00457961 0)
(0.999176 0.00534199 0)
(0.999061 0.00627781 0)
(1.0001 0.00639909 0)
(1.0013 0.00629685 0)
(1.00178 0.00658206 0)
(1.0001 -0.000321041 0)
(0.999493 -0.00140643 0)
(0.998419 -6.56864e-06 0)
(0.998168 -0.000293111 0)
(0.998755 0.000456799 0)
(0.999609 0.000727539 0)
(1.00023 -0.000227253 0)
(1.00024 -0.00102894 0)
(0.998775 -0.00185776 0)
(0.997339 -0.00108977 0)
(0.997284 -0.000141458 0)
(0.997073 0.000676161 0)
(0.996124 0.00265414 0)
(0.997057 0.00415997 0)
(0.99882 0.00448734 0)
(0.999414 0.0051009 0)
(0.999239 0.00604203 0)
(1.00012 0.00629977 0)
(1.00134 0.0061703 0)
(1.0019 0.00636645 0)
(1.00009 -0.000244294 0)
(0.999573 -0.00139746 0)
(0.998529 -5.53983e-05 0)
(0.998251 -0.000192468 0)
(0.998858 0.000293265 0)
(0.999621 0.000688535 0)
(1.00017 -0.000150355 0)
(1.00018 -0.000964485 0)
(0.998831 -0.00160172 0)
(0.997522 -0.000847469 0)
(0.99748 2.298e-05 0)
(0.99738 0.00076635 0)
(0.996522 0.00256154 0)
(0.997292 0.00405881 0)
(0.998956 0.00440599 0)
(0.999639 0.00488591 0)
(0.999443 0.00579051 0)
(1.00017 0.00616983 0)
(1.00136 0.00605623 0)
(1.00201 0.00616295 0)
(1.00007 -0.000176574 0)
(0.99965 -0.00136871 0)
(0.998647 -0.000119891 0)
(0.998332 -9.07905e-05 0)
(0.998957 0.000147004 0)
(0.999649 0.000614832 0)
(1.00011 -5.0741e-05 0)
(1.00012 -0.000868919 0)
(0.9989 -0.00137333 0)
(0.997707 -0.000610016 0)
(0.99767 0.000200778 0)
(0.997671 0.000857711 0)
(0.996917 0.00246566 0)
(0.997541 0.00394241 0)
(0.999085 0.00433244 0)
(0.999849 0.00470151 0)
(0.999665 0.00553727 0)
(1.00023 0.00601215 0)
(1.00136 0.00594253 0)
(1.00209 0.00598325 0)
(1.00006 -0.000118613 0)
(0.999721 -0.00131798 0)
(0.998773 -0.000200542 0)
(0.998412 1.36602e-05 0)
(0.999048 2.66068e-05 0)
(0.999694 0.000505481 0)
(1.00006 5.40557e-05 0)
(1.00008 -0.00073815 0)
(0.998981 -0.00116472 0)
(0.997895 -0.000385081 0)
(0.997854 0.000386417 0)
(0.997944 0.000955902 0)
(0.997304 0.00237115 0)
(0.997805 0.00380852 0)
(0.999212 0.00425965 0)
(1.00004 0.00454831 0)
(0.999898 0.00528825 0)
(1.00033 0.00583067 0)
(1.00137 0.0058178 0)
(1.00215 0.00582239 0)
(1.00005 -7.15346e-05 0)
(0.999786 -0.00124464 0)
(0.998907 -0.000292935 0)
(0.998492 0.000115228 0)
(0.99913 -5.60627e-05 0)
(0.999756 0.000371014 0)
(1.00003 0.000155716 0)
(1.00003 -0.000569774 0)
(0.999071 -0.000978109 0)
(0.99809 -0.000189094 0)
(0.998033 0.000569211 0)
(0.998197 0.00107121 0)
(0.99768 0.00229045 0)
(0.998085 0.00365766 0)
(0.999346 0.0041727 0)
(1.00021 0.00441937 0)
(1.00013 0.00505193 0)
(1.00045 0.00563312 0)
(1.00138 0.00568265 0)
(1.00219 0.00566808 0)
(1.00004 -3.50837e-05 0)
(0.999842 -0.00115198 0)
(0.999046 -0.000391531 0)
(0.998575 0.000202661 0)
(0.999198 -8.15226e-05 0)
(0.999833 0.000224652 0)
(1.00003 0.000236986 0)
(0.999996 -0.000373739 0)
(0.999162 -0.000795968 0)
(0.998293 -3.20173e-05 0)
(0.998214 0.000736182 0)
(0.998431 0.001199 0)
(0.998037 0.00222876 0)
(0.998375 0.00349704 0)
(0.999493 0.00406701 0)
(1.00037 0.00430478 0)
(1.00037 0.00483344 0)
(1.00059 0.00542145 0)
(1.00141 0.00553753 0)
(1.00222 0.005512 0)
(1.00004 -8.9009e-06 0)
(0.99989 -0.0010434 0)
(0.999188 -0.000489304 0)
(0.998666 0.000266559 0)
(0.999253 -4.70503e-05 0)
(0.999918 8.75011e-05 0)
(1.00004 0.000278689 0)
(0.999965 -0.000172724 0)
(0.999251 -0.000612314 0)
(0.998503 8.71795e-05 0)
(0.998402 0.000877355 0)
(0.998649 0.00133177 0)
(0.99837 0.00219111 0)
(0.998671 0.00333897 0)
(0.999654 0.00394264 0)
(1.00052 0.00419256 0)
(1.00059 0.00463353 0)
(1.00076 0.00520127 0)
(1.00145 0.00538266 0)
(1.00224 0.00535821 0)
(1.00003 7.26576e-06 0)
(0.999928 -0.000922799 0)
(0.99933 -0.000577485 0)
(0.998768 0.000300389 0)
(0.999294 3.05095e-05 0)
(1 -2.24178e-05 0)
(1.00009 0.000272237 0)
(0.999946 1.4981e-05 0)
(0.999333 -0.000417704 0)
(0.998716 0.000186423 0)
(0.998602 0.000982627 0)
(0.998856 0.00145819 0)
(0.998679 0.00218187 0)
(0.998964 0.00319512 0)
(0.999831 0.00380161 0)
(1.00067 0.00407477 0)
(1.00081 0.00444947 0)
(1.00094 0.00497938 0)
(1.00151 0.00521412 0)
(1.00226 0.0052083 0)
(1.00003 1.43776e-05 0)
(0.999957 -0.000794441 0)
(0.999468 -0.000649739 0)
(0.998883 0.000302164 0)
(0.999326 0.000138262 0)
(1.00008 -8.54122e-05 0)
(1.00016 0.000224132 0)
(0.999948 0.00018153 0)
(0.999408 -0.000203764 0)
(0.998925 0.00028184 0)
(0.998814 0.00105023 0)
(0.999062 0.00156417 0)
(0.998964 0.00219412 0)
(0.999248 0.0030742 0)
(1.00002 0.00365349 0)
(1.00082 0.0039491 0)
(1.00102 0.00427768 0)
(1.00113 0.00476099 0)
(1.00159 0.00503037 0)
(1.00228 0.00505417 0)
(1.00003 1.46861e-05 0)
(0.999976 -0.000664375 0)
(0.999599 -0.000699929 0)
(0.999013 0.000271494 0)
(0.999353 0.000263083 0)
(1.00015 -8.87239e-05 0)
(1.00026 0.000151838 0)
(0.999976 0.000315537 0)
(0.999478 1.93355e-05 0)
(0.999122 0.000385511 0)
(0.999036 0.00109217 0)
(0.999271 0.00164142 0)
(0.999231 0.00221055 0)
(0.999518 0.00297813 0)
(1.00021 0.00351308 0)
(1.00097 0.00381837 0)
(1.00121 0.00411567 0)
(1.00133 0.00455105 0)
(1.0017 0.00483902 0)
(1.00232 0.00488973 0)
(1.00003 9.41079e-06 0)
(0.999987 -0.000536343 0)
(0.999718 -0.000723118 0)
(0.999156 0.000211848 0)
(0.999383 0.000384107 0)
(1.00019 -3.22383e-05 0)
(1.00036 7.75394e-05 0)
(1.00003 0.000394899 0)
(0.999548 0.000245534 0)
(0.999303 0.000518659 0)
(0.999259 0.00112579 0)
(0.999486 0.00168605 0)
(0.999487 0.00221927 0)
(0.999775 0.00289984 0)
(1.00041 0.00338811 0)
(1.00113 0.00368848 0)
(1.00141 0.00395919 0)
(1.00153 0.0043484 0)
(1.00182 0.00464643 0)
(1.00236 0.00471573 0)
(1.00004 7.93348e-07 0)
(0.99999 -0.000415728 0)
(0.999822 -0.000716275 0)
(0.999312 0.00013023 0)
(0.999422 0.000484165 0)
(1.00021 6.90239e-05 0)
(1.00046 2.6656e-05 0)
(1.00013 0.000422989 0)
(0.99963 0.000450612 0)
(0.999464 0.000675063 0)
(0.999475 0.00116506 0)
(0.999705 0.00170546 0)
(0.999736 0.00221921 0)
(1.00002 0.00283247 0)
(1.0006 0.00327566 0)
(1.00129 0.00356503 0)
(1.00159 0.00381004 0)
(1.00173 0.00415174 0)
(1.00195 0.004455 0)
(1.00242 0.00454334 0)
(1.00004 -8.26204e-06 0)
(0.999988 -0.00030778 0)
(0.999909 -0.000678209 0)
(0.999474 4.17102e-05 0)
(0.999475 0.000555761 0)
(1.00022 0.00019965 0)
(1.00055 1.3554e-05 0)
(1.00024 0.000413921 0)
(0.99973 0.000612274 0)
(0.999609 0.000840492 0)
(0.999675 0.00121962 0)
(0.999924 0.0017105 0)
(0.999982 0.00219766 0)
(1.00026 0.00276648 0)
(1.00079 0.0031698 0)
(1.00144 0.00344685 0)
(1.00177 0.00367368 0)
(1.00193 0.00396471 0)
(1.0021 0.00426 0)
(1.00248 0.00438055 0)
(1.00004 -1.54766e-05 0)
(0.999983 -0.000216449 0)
(0.999976 -0.00060598 0)
(0.999639 -5.09427e-05 0)
(0.999547 0.00058443 0)
(1.00022 0.000346684 0)
(1.00062 5.09849e-05 0)
(1.00038 0.000387742 0)
(0.999856 0.000715765 0)
(0.999745 0.000998987 0)
(0.999854 0.00129709 0)
(1.00013 0.00172041 0)
(1.00022 0.00216037 0)
(1.00049 0.00269575 0)
(1.00098 0.00307092 0)
(1.0016 0.00332897 0)
(1.00193 0.00354494 0)
(1.00212 0.00379232 0)
(1.00226 0.00405475 0)
(1.00255 0.00421712 0)
(1.00004 -1.79327e-05 0)
(0.999979 -0.000144408 0)
(1.00002 -0.000504617 0)
(0.999797 -0.000131481 0)
(0.99964 0.000568499 0)
(1.00021 0.000489325 0)
(1.00067 0.00013475 0)
(1.00052 0.000370282 0)
(1.00001 0.000764081 0)
(0.999885 0.00112878 0)
(1.00002 0.00138653 0)
(1.00032 0.00173989 0)
(1.00045 0.00212082 0)
(1.00072 0.00261296 0)
(1.00116 0.00297413 0)
(1.00175 0.00321336 0)
(1.00209 0.00341531 0)
(1.00229 0.00364042 0)
(1.00243 0.00385209 0)
(1.00263 0.00404082 0)
(1.00004 -1.5721e-05 0)
(0.999977 -8.82195e-05 0)
(1.00006 -0.000388786 0)
(0.999943 -0.000175879 0)
(0.999752 0.000520146 0)
(1.00021 0.0006108 0)
(1.00069 0.000249824 0)
(1.00064 0.000374136 0)
(1.00017 0.000779074 0)
(1.00003 0.00122009 0)
(1.00016 0.00147406 0)
(1.00049 0.00177144 0)
(1.00067 0.00208921 0)
(1.00095 0.00252378 0)
(1.00135 0.00286936 0)
(1.00189 0.00310085 0)
(1.00225 0.00327876 0)
(1.00245 0.00349767 0)
(1.0026 0.00366782 0)
(1.00274 0.00384681 0)
(1.00004 -7.742e-06 0)
(0.999979 -4.65422e-05 0)
(1.00008 -0.000269168 0)
(1.00007 -0.000183577 0)
(0.999878 0.000449029 0)
(1.00023 0.000696292 0)
(1.0007 0.000386807 0)
(1.00075 0.000411525 0)
(1.00035 0.000776039 0)
(1.0002 0.00126453 0)
(1.0003 0.00154569 0)
(1.00064 0.00181205 0)
(1.00086 0.00207048 0)
(1.00115 0.00244404 0)
(1.00153 0.0027589 0)
(1.00204 0.00299049 0)
(1.0024 0.0031436 0)
(1.0026 0.00335086 0)
(1.00274 0.00350613 0)
(1.00286 0.00364707 0)
(1.00004 4.78576e-06 0)
(0.999985 -1.63205e-05 0)
(1.00009 -0.000155122 0)
(1.00018 -0.000152025 0)
(1.00001 0.000375002 0)
(1.00027 0.000737097 0)
(1.00069 0.000524616 0)
(1.00084 0.000489693 0)
(1.00053 0.00077903 0)
(1.00037 0.00127347 0)
(1.00045 0.00159092 0)
(1.00078 0.00184836 0)
(1.00103 0.00205928 0)
(1.00134 0.00237426 0)
(1.0017 0.00264862 0)
(1.00217 0.00287542 0)
(1.00253 0.00301501 0)
(1.00275 0.0031976 0)
(1.00287 0.00335459 0)
(1.00298 0.0034586 0)
(1.00004 2.03853e-05 0)
(0.999996 7.71993e-06 0)
(1.0001 -5.33071e-05 0)
(1.00026 -9.08731e-05 0)
(1.00014 0.000315057 0)
(1.00033 0.000742761 0)
(1.0007 0.000645008 0)
(1.0009 0.000589831 0)
(1.00069 0.000800215 0)
(1.00056 0.00126536 0)
(1.0006 0.0016063 0)
(1.00091 0.00187456 0)
(1.00117 0.00205589 0)
(1.00151 0.00231552 0)
(1.00186 0.00254714 0)
(1.00231 0.00275677 0)
(1.00266 0.00288847 0)
(1.00289 0.00304416 0)
(1.00299 0.00319927 0)
(1.00308 0.00328761 0)
(1.00004 3.73178e-05 0)
(1.00001 2.94623e-05 0)
(1.00011 3.19171e-05 0)
(1.00032 -1.49934e-05 0)
(1.00027 0.000279 0)
(1.00041 0.000727267 0)
(1.00071 0.000740743 0)
(1.00095 0.000697892 0)
(1.00083 0.000840869 0)
(1.00073 0.001254 0)
(1.00076 0.00159371 0)
(1.00103 0.00187938 0)
(1.0013 0.00205051 0)
(1.00165 0.00226697 0)
(1.00201 0.00245536 0)
(1.00243 0.00264249 0)
(1.00278 0.00276141 0)
(1.00302 0.00289459 0)
(1.00311 0.00303808 0)
(1.00317 0.00312784 0)
(1.00003 5.41761e-05 0)
(1.00003 5.07254e-05 0)
(1.00012 0.000100628 0)
(1.00037 7.00209e-05 0)
(1.00038 0.000272182 0)
(1.0005 0.000701601 0)
(1.00073 0.000805925 0)
(1.00098 0.000805171 0)
(1.00095 0.000901628 0)
(1.0009 0.00125155 0)
(1.00093 0.00157154 0)
(1.00116 0.00186166 0)
(1.00142 0.00203419 0)
(1.00178 0.00222499 0)
(1.00214 0.00237241 0)