/*--------------------------------*- C++ -*----------------------------------*\
| =========                 |                                                 |
| \\      /  F ield         | OpenFOAM: The Open Source CFD Toolbox           |
|  \\    /   O peration     | Version:  2506                                  |
|   \\  /    A nd           | Website:  www.openfoam.com                      |
|    \\/     M anipulation  |                                                 |
\*---------------------------------------------------------------------------*/
FoamFile
{
    version     2.0;
    format      ascii;
    arch        "LSB;label=32;scalar=64";
    class       volScalarField;
    location    "5.45";
    object      p;
}
// * * * * * * * * * * * * * * * * * * * * * * * * * * * * * * * * * * * * * //

dimensions      [0 2 -2 0 0 0 0];

internalField   nonuniform List<scalar> 
9600
(
3.00616e-11
0.00857311
0.0119775
0.00586801
0.0024628
0.0107257
0.0111994
0.00910314
0.0120675
0.0148437
0.0125776
0.0122288
0.01217
0.0137514
0.0125656
0.0126802
0.0126295
0.012186
0.0126997
0.0131555
4.55253e-06
0.00858006
0.0119448
0.00585587
0.0024838
0.0107179
0.0111806
0.00910278
0.0120623
0.0148351
0.0125781
0.0122339
0.012176
0.0137365
0.0125781
0.0126778
0.0126423
0.0121695
0.0127175
0.0130756
8.42722e-06
0.00858391
0.0119112
0.00585137
0.00249366
0.0107077
0.0111588
0.00910876
0.0120555
0.0148399
0.0125834
0.0122385
0.0121819
0.0137135
0.012607
0.0126643
0.0126641
0.0121375
0.0127396
0.0129516
1.36412e-05
0.008596
0.0118779
0.00585748
0.00250247
0.0107014
0.0111387
0.00912476
0.0120485
0.0148174
0.0125936
0.0122344
0.0121887
0.0136911
0.0126371
0.0126424
0.0126813
0.0121074
0.0127437
0.0128229
2.62454e-05
0.0086152
0.0118368
0.00588053
0.00252054
0.0106903
0.0111166
0.00915276
0.0120408
0.0147842
0.0126077
0.0122212
0.0121974
0.0136649
0.0126637
0.012615
0.0126975
0.0120805
0.0127269
0.0127155
5.20205e-05
0.00863221
0.0117843
0.0059239
0.00255944
0.0106664
0.0110919
0.009193
0.0120325
0.0147423
0.0126239
0.0122011
0.0122057
0.0136334
0.0126896
0.0125856
0.0127151
0.012052
0.0126965
0.012636
9.47005e-05
0.00863893
0.0117208
0.00598664
0.00262723
0.0106482
0.0110686
0.0092434
0.012024
0.0146965
0.0126407
0.0121763
0.0122127
0.0135997
0.0127171
0.0125552
0.0127309
0.0120229
0.0126562
0.0125744
0.000155622
0.00863285
0.0116497
0.0060639
0.00272622
0.0105955
0.0110517
0.00929993
0.0120155
0.014649
0.0126571
0.0121493
0.0122193
0.0135661
0.0127459
0.0125235
0.0127423
0.0119967
0.0126037
0.0125224
0.000234015
0.0086163
0.0115757
0.00614922
0.0028536
0.0105349
0.0110437
0.00935788
0.0120066
0.0146004
0.012673
0.0121221
0.0122262
0.0135327
0.0127753
0.0124909
0.0127483
0.0119747
0.0125362
0.0124762
0.000327609
0.00859426
0.0115024
0.0062373
0.00300338
0.0104717
0.0110438
0.00941333
0.0119968
0.0145511
0.0126886
0.0120954
0.0122341
0.0135002
0.0128047
0.0124586
0.0127481
0.0119571
0.0124544
0.0124341
0.000433462
0.00857154
0.0114317
0.00632521
0.00316859
0.0104097
0.0110501
0.00946426
0.0119851
0.0145014
0.0127035
0.0120694
0.0122436
0.0134692
0.0128331
0.0124284
0.0127409
0.0119439
0.0123617
0.0123939
0.000548674
0.00855104
0.0113634
0.00641192
0.00334303
0.0103511
0.0110604
0.00951061
0.0119717
0.0144514
0.0127175
0.0120438
0.012255
0.0134406
0.01286
0.012402
0.0127265
0.0119346
0.0122627
0.0123531
0.00067084
0.00853363
0.0112963
0.00649729
0.00352209
0.0102965
0.0110731
0.00955342
0.0119574
0.0144016
0.0127302
0.0120187
0.0122679
0.0134149
0.0128849
0.0123805
0.0127052
0.0119283
0.0121616
0.0123098
0.000798221
0.00851889
0.0112294
0.0065812
0.00370306
0.0102453
0.0110868
0.00959382
0.0119429
0.0143523
0.0127415
0.0119937
0.0122814
0.0133923
0.0129073
0.0123637
0.0126775
0.011924
0.0120612
0.0122629
0.000929737
0.00850607
0.0111617
0.00666345
0.0038848
0.0101968
0.0111007
0.00963261
0.0119288
0.0143042
0.0127512
0.0119691
0.0122942
0.0133725
0.0129273
0.0123503
0.0126438
0.0119202
0.0119637
0.012212
0.00106484
0.00849462
0.0110933
0.00674373
0.00406699
0.0101505
0.0111144
0.00967034
0.0119154
0.0142576
0.0127592
0.0119447
0.0123054
0.0133551
0.0129452
0.0123388
0.0126043
0.011916
0.0118704
0.0121567
0.00120336
0.00848421
0.0110243
0.00682188
0.00424973
0.0101063
0.0111278
0.00970742
0.0119026
0.0142127
0.0127655
0.0119206
0.0123145
0.01334
0.0129614
0.0123277
0.0125592
0.0119106
0.0117826
0.0120966
0.0013453
0.00847466
0.0109553
0.00689795
0.00443326
0.0100646
0.0111412
0.00974422
0.0118904
0.0141698
0.0127698
0.011897
0.0123216
0.0133265
0.0129763
0.0123164
0.0125085
0.011903
0.0117014
0.012032
0.00149076
0.00846585
0.0108869
0.0069721
0.00461776
0.0100259
0.0111546
0.00978106
0.0118782
0.0141291
0.012772
0.0118737
0.0123269
0.0133143
0.0129903
0.012305
0.0124526
0.0118928
0.0116276
0.0119641
0.00163987
0.00845774
0.01082
0.00704453
0.00480325
0.00999045
0.0111679
0.00981823
0.0118659
0.0140908
0.0127724
0.0118505
0.0123309
0.0133027
0.0130035
0.0122936
0.0123919
0.0118799
0.011562
0.0118942
0.00179274
0.00845028
0.010755
0.0071154
0.00498954
0.00995884
0.0111812
0.00985601
0.0118529
0.0140552
0.0127711
0.0118271
0.0123341
0.0132915
0.0130158
0.0122827
0.012327
0.0118645
0.0115056
0.0118227
0.00194944
0.00844344
0.0106926
0.00718489
0.00517627
0.00993141
0.0111942
0.00989468
0.011839
0.0140222
0.0127689
0.011803
0.0123369
0.0132808
0.0130265
0.0122727
0.0122587
0.0118464
0.0114597
0.0117499
0.00211004
0.00843722
0.010633
0.00725318
0.00536288
0.00990845
0.0112068
0.00993443
0.011824
0.0139916
0.0127662
0.0117778
0.0123393
0.0132708
0.0130349
0.0122639
0.012188
0.0118247
0.0114256
0.0116776
0.00227457
0.00843167
0.0105768
0.00732047
0.00554869
0.00989021
0.0112188
0.00997541
0.0118078
0.0139632
0.012764
0.0117513
0.0123412
0.013262
0.0130407
0.0122561
0.0121157
0.0117982
0.0114043
0.0116093
0.00244306
0.00842677
0.010524
0.00738707
0.00573307
0.00987689
0.0112302
0.0100177
0.0117906
0.0139365
0.0127627
0.0117234
0.0123422
0.0132551
0.0130436
0.0122488
0.0120431
0.0117655
0.0113961
0.0115512
0.00261551
0.00842253
0.0104748
0.00745338
0.00591542
0.00986858
0.011241
0.0100613
0.0117726
0.0139111
0.012763
0.0116937
0.0123418
0.0132508
0.0130433
0.0122415
0.0119716
0.0117253
0.0113987
0.0115109
0.00279194
0.00841904
0.0104295
0.00751975
0.00609518
0.00986537
0.0112514
0.0101061
0.0117538
0.0138869
0.0127657
0.0116622
0.0123394
0.0132498
0.0130398
0.0122334
0.0119038
0.011677
0.0114049
0.0114931
0.00297231
0.00841638
0.010388
0.00758666
0.00627182
0.00986724
0.0112617
0.010152
0.0117345
0.0138637
0.0127709
0.0116288
0.0123348
0.0132526
0.0130335
0.0122235
0.0118424
0.0116232
0.0114058
0.0114944
0.00315657
0.00841459
0.0103504
0.00765462
0.00644486
0.00987391
0.0112724
0.0101988
0.0117143
0.0138413
0.0127794
0.0115934
0.012327
0.0132604
0.0130254
0.0122097
0.011788
0.0115696
0.011397
0.011504
0.00334462
0.00841068
0.0103168
0.00772413
0.00661413
0.00988493
0.0112843
0.0102469
0.0116929
0.0138193
0.0127918
0.0115558
0.0123146
0.0132744
0.0130179
0.0121903
0.011739
0.0115214
0.011382
0.0115098
0.00353638
0.00841258
0.0102871
0.00779564
0.00677969
0.00989967
0.011298
0.010297
0.01167
0.0137971
0.0128091
0.011516
0.0122954
0.0132946
0.0130135
0.0121653
0.0116928
0.0114796
0.0113677
0.0115067
0.00373168
0.008417
0.0102613
0.00786949
0.0069416
0.00991733
0.0113138
0.0103496
0.0116454
0.0137739
0.0128325
0.011475
0.0122673
0.0133203
0.0130148
0.0121357
0.0116491
0.0114427
0.0113572
0.011499
0.00393037
0.00842409
0.0102395
0.00794599
0.00710022
0.00993712
0.0113313
0.0104062
0.0116189
0.0137479
0.0128628
0.0114347
0.0122281
0.0133497
0.0130244
0.0121014
0.0116083
0.0114122
0.0113493
0.0114919
0.00413221
0.00843426
0.0102216
0.0080253
0.0072562
0.00995853
0.0113506
0.0104679
0.0115908
0.0137172
0.0129007
0.0113974
0.0121756
0.0133807
0.0130458
0.0120618
0.0115683
0.0113938
0.0113446
0.0114858
0.004337
0.00844779
0.0102079
0.00810745
0.00741006
0.00998155
0.0113709
0.0105357
0.0115625
0.0136799
0.0129456
0.0113659
0.012108
0.0134096
0.0130832
0.0120185
0.0115229
0.0113917
0.0113505
0.0114793
0.00454456
0.00846494
0.0101987
0.00819237
0.00756209
0.0100062
0.0113915
0.0106101
0.0115352
0.0136341
0.0129961
0.0113435
0.0120254
0.0134316
0.0131388
0.0119773
0.0114652
0.0114025
0.0113775
0.0114764
0.00475473
0.00848591
0.0101946
0.00828004
0.00771239
0.0100328
0.0114108
0.0106906
0.0115116
0.0135788
0.013049
0.0113338
0.0119302
0.0134411
0.0132125
0.0119456
0.0113915
0.0114165
0.0114326
0.011489
0.00496752
0.00851055
0.0101961
0.00837066
0.00786062
0.0100623
0.011427
0.0107764
0.011495
0.0135137
0.013101
0.0113398
0.0118255
0.0134329
0.0133027
0.0119315
0.011302
0.0114226
0.0115153
0.01153
0.00518296
0.00853832
0.0102046
0.00846476
0.00800545
0.010096
0.0114391
0.0108658
0.0114879
0.0134401
0.0131484
0.0113622
0.0117149
0.0134028
0.0134063
0.0119432
0.0111999
0.0114099
0.0116185
0.0116101
0.0054012
0.00856869
0.0102211
0.0085633
0.00814512
0.0101351
0.0114464
0.0109561
0.0114913
0.01336
0.0131881
0.0114005
0.0116029
0.0133473
0.0135172
0.0119887
0.0110922
0.0113675
0.0117299
0.0117356
0.00562252
0.00860113
0.0102457
0.00866775
0.00827798
0.0101792
0.0114555
0.0110448
0.0115045
0.0132765
0.0132186
0.0114535
0.0114946
0.0132637
0.013626
0.012075
0.010993
0.0112868
0.0118311
0.0119049
0.00584725
0.00863526
0.010278
0.00878031
0.00840291
0.0102272
0.0114681
0.0111305
0.0115271
0.013193
0.0132396
0.01152
0.0113948
0.0131509
0.0137202
0.0122051
0.010922
0.0111685
0.0118984
0.0121026
0.00607578
0.00867101
0.0103167
0.00890368
0.00852007
0.0102767
0.0114862
0.0112127
0.0115573
0.0131108
0.0132514
0.0115998
0.0113086
0.0130101
0.0137871
0.012373
0.0108989
0.0110274
0.0119116
0.0123024
0.00630861
0.0087085
0.0103594
0.00904121
0.00863107
0.0103237
0.0115118
0.0112927
0.0115906
0.0130295
0.0132543
0.0116927
0.0112417
0.0128454
0.0138163
0.012566
0.0109387
0.0108864
0.0118631
0.0124746
0.00654606
0.0087484
0.0104028
0.00919558
0.00873909
0.0103628
0.0115458
0.0113722
0.011624
0.0129483
0.013248
0.0117981
0.0112
0.0126633
0.0137994
0.0127681
0.0110486
0.0107699
0.0117602
0.0125934
0.0067882
0.00879175
0.0104439
0.00936728
0.0088493
0.0103902
0.0115855
0.0114564
0.0116576
0.012866
0.0132312
0.0119144
0.0111899
0.0124743
0.0137317
0.0129609
0.0112252
0.0107024
0.011621
0.0126447
0.00703484
0.00884004
0.01048
0.00955535
0.00896793
0.0104041
0.0116259
0.0115505
0.0116946
0.0127801
0.0132009
0.0120381
0.0112176
0.0122918
0.013616
0.0131242
0.0114523
0.0107042
0.0114714
0.0126266
0.00728557
0.00889527
0.0105091
0.00975635
0.0091017
0.0104048
0.0116594
0.0116575
0.0117381
0.0126912
0.0131545
0.0121621
0.0112856
0.0121311
0.0134639
0.0132418
0.0117055
0.0107834
0.0113413
0.0125481
0.00753981
0.00895964
0.01053
0.00996383
0.00925778
0.0103953
0.0116767
0.0117753
0.0117989
0.012606
0.01309
0.012278
0.0113909
0.0120061
0.0132915
0.013308
0.0119587
0.0109305
0.0112592
0.0124306
0.0077967
0.00903561
0.0105419
0.0101698
0.00944101
0.0103828
0.0116697
0.0119016
0.0118849
0.0125309
0.0130086
0.0123768
0.0115246
0.0119278
0.0131143
0.0133257
0.0121921
0.0111247
0.0112419
0.0123051
0.00805524
0.00912553
0.0105458
0.0103661
0.0096526
0.0103775
0.011635
0.0120233
0.0119986
0.0124775
0.0129169
0.0124489
0.0116745
0.0119019
0.012949
0.0133027
0.0123949
0.0113447
0.0112883
0.0122028
0.00831399
0.00923117
0.0105445
0.0105464
0.00988982
0.0103914
0.0115744
0.0121208
0.0121349
0.0124603
0.0128255
0.0124902
0.0118255
0.011924
0.0128127
0.0132514
0.0125614
0.0115724
0.0113838
0.0121445
0.00857131
0.00935351
0.0105428
0.0107058
0.0101445
0.0104352
0.0114955
0.0121795
0.0122868
0.0124881
0.0127478
0.0125051
0.0119627
0.0119816
0.0127174
0.0131885
0.0126904
0.0117947
0.0115115
0.012132
0.00882573
0.00949288
0.0105469
0.0108407
0.010405
0.0105165
0.0114122
0.0121934
0.0124364
0.0125603
0.0127
0.0125045
0.012077
0.0120614
0.0126634
0.0131296
0.0127873
0.0120045
0.0116624
0.0121554
0.00907605
0.00964876
0.0105631
0.0109495
0.0106579
0.0106377
0.0113417
0.0121661
0.0125605
0.0126699
0.0126971
0.0125008
0.0121671
0.0121497
0.0126423
0.0130839
0.0128618
0.0121986
0.0118338
0.0122088
0.0093216
0.00981931
0.0105967
0.0110332
0.0108909
0.0107953
0.0113005
0.0120997
0.0126413
0.012805
0.0127458
0.01251
0.0122371
0.0122363
0.0126477
0.0130564
0.0129254
0.0123748
0.0120193
0.0122924
0.00956207
0.0100026
0.0106507
0.0110946
0.0110958
0.0109814
0.0113005
0.011989
0.012673
0.0129411
0.0128404
0.0125499
0.0122966
0.0123133
0.0126723
0.0130491
0.0129877
0.0125339
0.0122065
0.0124058
0.00979677
0.0101955
0.010727
0.0111409
0.011268
0.0111828
0.0113494
0.0119256
0.0126627
0.0130529
0.0129712
0.0126313
0.0123607
0.0123799
0.0127061
0.0130595
0.0130544
0.0126828
0.0123865
0.0125418
0.0100249
0.0103909
0.0108265
0.0111865
0.0114074
0.0113839
0.0114451
0.011889
0.0126179
0.013124
0.0131178
0.0127525
0.012445
0.0124455
0.0127416
0.0130797
0.0131261
0.0128313
0.0125617
0.0126887
0.0102465
0.0105865
0.0109471
0.0112384
0.0115179
0.0115732
0.011578
0.0118897
0.0125585
0.0131519
0.0132564
0.0129065
0.012558
0.0125201
0.0127809
0.0131033
0.0131973
0.0129831
0.0127424
0.0128427
0.0104624
0.010779
0.0110842
0.0113037
0.0116069
0.0117431
0.0117347
0.0119317
0.01251
0.0131462
0.0133686
0.0130809
0.0127018
0.012611
0.01283
0.0131318
0.0132624
0.0131304
0.0129328
0.0130087
0.0106731
0.0109663
0.0112326
0.0113868
0.011683
0.0118898
0.0119017
0.012013
0.0124887
0.0131195
0.0134466
0.0132571
0.0128757
0.0127245
0.0128911
0.0131704
0.0133237
0.0132641
0.0131251
0.0131898
0.0108789
0.011148
0.0113869
0.0114876
0.011755
0.0120134
0.0120686
0.0121262
0.0125013
0.0130907
0.0134946
0.0134178
0.0130717
0.012869
0.0129685
0.0132199
0.013389
0.0133852
0.0133095
0.0133821
0.0110799
0.011324
0.0115417
0.0116044
0.0118304
0.0121172
0.0122272
0.0122616
0.0125494
0.0130768
0.0135222
0.0135536
0.0132739
0.0130455
0.0130727
0.0132806
0.0134607
0.0135001
0.013482
0.0135791
0.0112757
0.0114943
0.0116945
0.0117333
0.011914
0.0122066
0.0123723
0.0124095
0.0126301
0.0130887
0.0135425
0.0136658
0.0134685
0.013244
0.0132121
0.0133598
0.0135378
0.0136127
0.0136422
0.0137733
0.0114655
0.0116598
0.0118431
0.0118693
0.0120077
0.0122883
0.0125021
0.0125696
0.0127392
0.0131299
0.0135683
0.0137615
0.013651
0.0134523
0.0133832
0.0134696
0.0136258
0.0137277
0.0137947
0.013959
0.0116483
0.011819
0.0119862
0.0120087
0.0121121
0.0123679
0.0126173
0.0127218
0.0128698
0.0132007
0.0136079
0.0138476
0.0138205
0.0136628
0.0135755
0.0136134
0.0137358
0.013851
0.0139475
0.014138
0.0118239
0.011974
0.0121218
0.0121452
0.0122252
0.0124502
0.0127193
0.0128637
0.0130123
0.0132988
0.0136694
0.0139335
0.0139798
0.0138746
0.013785
0.0137871
0.0138744
0.0139884
0.0141058
0.0143136
0.0119895
0.0121227
0.0122518
0.0122774
0.0123431
0.012537
0.0128127
0.0129938
0.0131569
0.0134178
0.013756
0.0140295
0.0141347
0.0140884
0.014014
0.013991
0.0140452
0.0141467
0.0142743
0.0144918
0.0121427
0.0122617
0.0123769
0.012404
0.0124618
0.0126283
0.0129009
0.0131138
0.0133005
0.0135506
0.013864
0.0141431
0.0142934
0.0143043
0.0142615
0.0142298
0.014256
0.0143388
0.0144646
0.0146833
0.012286
0.012396
0.0124911
0.0125174
0.0125773
0.0127246
0.0129853
0.0132209
0.0134394
0.0136909
0.0139884
0.0142763
0.0144663
0.0145279
0.0145272
0.0145086
0.014519
0.0145825
0.014698
0.014907
0.0124133
0.0125183
0.0126003
0.012623
0.0126851
0.0128203
0.0130676
0.0133142
0.013566
0.0138344
0.0141274
0.0144255
0.0146566
0.0147682
0.0148138
0.0148266
0.0148394
0.0148915
0.0149992
0.0151952
0.0125215
0.0126258
0.0127038
0.0127198
0.0127834
0.01291
0.0131461
0.0133958
0.0136704
0.0139705
0.0142802
0.014597
0.0148734
0.0150348
0.0151176
0.0151612
0.0151858
0.0152421
0.0153555
0.0155665
0.0126167
0.0127203
0.0127887
0.0127986
0.0128725
0.0130069
0.0132227
0.0134651
0.0137389
0.0140619
0.0144337
0.014829
0.0152075
0.0154896
0.0156621
0.0157565
0.0157665
0.0157053
0.0156679
0.0157355
0.0126965
0.0127947
0.0128516
0.0128563
0.0129159
0.0130548
0.013281
0.0135227
0.013779
0.0140133
0.0142871
0.0146876
0.015215
0.015716
0.0160945
0.016419
0.016781
0.0171769
0.0175773
0.0179027
0.0127441
0.0128522
0.0129313
0.0129492
0.0130421
0.0131794
0.0133382
0.0135303
0.0138704
0.0143682
0.0149038
0.0153839
0.0157713
0.0160998
0.016397
0.0166685
0.0169325
0.017189
0.0174266
0.0175983
0.0127503
0.0128438
0.0128882
0.0128683
0.0129801
0.013194
0.0135754
0.0139841
0.0143388
0.0146585
0.0149503
0.015253
0.0155836
0.015925
0.0163079
0.0167212
0.0171842
0.0176669
0.0181138
0.0184465
0.0127574
0.0129127
0.0130432
0.0131579
0.0133678
0.0136303
0.0138585
0.0140911
0.0144059
0.0147687
0.0151727
0.01558
0.0159586
0.0162545
0.0164705
0.0165856
0.0165898
0.0165052
0.0163687
0.016266
0.0126397
0.0127673
0.0130154
0.0132353
0.0134651
0.0136446
0.01391
0.0141701
0.0144864
0.0148204
0.0151876
0.015528
0.0158892
0.0162618
0.0166498
0.0170885
0.0175539
0.0180168
0.0184104
0.0186522
0.012624
0.0127859
0.013063
0.0133468
0.0136843
0.0140013
0.0142463
0.0144421
0.0147071
0.015003
0.0153657
0.0157382
0.0161026
0.0164642
0.0167956
0.0171073
0.0173975
0.0176602
0.0178623
0.0179423
0.0144983
0.0133795
0.00832498
0.00397802
0.0035977
0.0057513
0.00812536
0.00985147
0.010986
0.011815
0.0125429
0.0132654
0.0139831
0.0146405
0.0152765
0.0160063
0.0167789
0.0174506
0.0179998
0.0185082
0.0190821
0.0197527
0.0204057
0.0209724
0.0215671
0.0222971
0.0230894
0.023849
0.0245689
0.0252793
0.0259981
0.0267167
0.0274199
0.028106
0.0287779
0.0294415
0.0301314
0.0308725
0.0316513
0.032437
0.0332097
0.0339717
0.0347642
0.0355877
0.0363901
0.0371801
0.0380117
0.0388779
0.0396919
0.0404374
0.0412247
0.0421254
0.0430488
0.043962
0.0449266
0.0459534
0.046976
0.0480191
0.0491092
0.0501779
0.0511379
0.0520395
0.0530711
0.0542606
0.0554705
0.0566437
0.0578371
0.0590107
0.0602018
0.0614185
0.0626619
0.0639355
0.0652721
0.0666232
0.0679897
0.0693705
0.0707894
0.0722382
0.073704
0.0752315
0.0767572
0.078343
0.0799516
0.0816169
0.0832711
0.084942
0.0866632
0.0884133
0.0902349
0.0920572
0.0938785
0.0957571
0.0976356
0.0995886
0.10153
0.103526
0.105519
0.107446
0.10932
0.111038
0.014264
0.0132845
0.00841854
0.00412145
0.00368365
0.00579354
0.00815281
0.00987142
0.0110009
0.0118264
0.0125519
0.0132727
0.0139895
0.014646
0.0152811
0.0160103
0.0167827
0.0174541
0.0180029
0.0185108
0.0190843
0.0197547
0.0204077
0.0209742
0.0215685
0.0222984
0.0230907
0.0238503
0.02457
0.0252803
0.0259991
0.0267176
0.0274208
0.0281069
0.0287788
0.0294424
0.0301322
0.0308733
0.0316521
0.0324379
0.0332105
0.0339725
0.0347649
0.0355884
0.0363908
0.0371807
0.0380122
0.0388785
0.0396925
0.040438
0.0412252
0.0421259
0.0430492
0.0439625
0.044927
0.0459537
0.0469764
0.0480194
0.0491096
0.0501783
0.0511382
0.0520398
0.0530713
0.0542608
0.0554708
0.0566439
0.0578374
0.0590109
0.060202
0.0614187
0.0626621
0.0639357
0.0652723
0.0666234
0.0679899
0.0693706
0.0707896
0.0722383
0.0737042
0.0752317
0.0767573
0.0783432
0.0799518
0.081617
0.0832712
0.0849421
0.0866633
0.0884134
0.090235
0.0920574
0.0938786
0.0957572
0.0976357
0.0995887
0.101531
0.103526
0.105519
0.107446
0.109321
0.111038
0.0139239
0.0131487
0.00860108
0.00439392
0.00383566
0.00584958
0.00817848
0.00989053
0.0110174
0.0118407
0.0125637
0.0132821
0.0139969
0.0146521
0.0152861
0.0160147
0.0167866
0.0174577
0.0180061
0.0185135
0.0190866
0.0197567
0.0204096
0.0209758
0.0215698
0.0222997
0.023092
0.0238514
0.0245711
0.0252812
0.026
0.0267184
0.0274216
0.0281077
0.0287796
0.0294431
0.0301328
0.0308739
0.0316528
0.0324386
0.0332112
0.0339731
0.0347655
0.035589
0.0363914
0.0371812
0.0380127
0.038879
0.039693
0.0404385
0.0412256
0.0421263
0.0430497
0.0439628
0.0449273
0.0459541
0.0469767
0.0480197
0.0491099
0.0501786
0.0511386
0.05204
0.0530714
0.054261
0.055471
0.0566441
0.0578376
0.0590111
0.0602022
0.0614189
0.0626623
0.0639358
0.0652724
0.0666235
0.06799
0.0693708
0.0707897
0.0722385
0.0737043
0.0752318
0.0767574
0.0783433
0.0799519
0.0816172
0.0832713
0.0849422
0.0866634
0.0884135
0.0902351
0.0920575
0.0938787
0.0957573
0.0976358
0.0995887
0.101531
0.103526
0.10552
0.107446
0.109321
0.111038
0.0135958
0.0130361
0.00884733
0.00474542
0.00404611
0.00592807
0.00821353
0.00991647
0.0110398
0.0118605
0.0125808
0.0132959
0.0140075
0.0146607
0.0152935
0.0160209
0.0167918
0.0174622
0.0180104
0.0185178
0.0190902
0.0197596
0.0204118
0.0209777
0.0215716
0.0223014
0.0230937
0.0238529
0.0245724
0.0252824
0.026001
0.0267194
0.0274224
0.0281084
0.0287803
0.0294437
0.0301334
0.0308745
0.0316534
0.0324392
0.0332119
0.0339738
0.0347661
0.0355897
0.036392
0.0371818
0.0380133
0.0388796
0.0396936
0.0404389
0.0412259
0.0421266
0.0430501
0.0439632
0.0449276
0.0459544
0.0469771
0.04802
0.0491102
0.0501791
0.051139
0.0520402
0.0530715
0.0542612
0.0554713
0.0566443
0.0578378
0.0590113
0.0602024
0.0614191
0.0626625
0.063936
0.0652726
0.0666237
0.0679901
0.0693709
0.0707898
0.0722386
0.0737044
0.0752319
0.0767575
0.0783434
0.079952
0.0816173
0.0832715
0.0849423
0.0866635
0.0884136
0.0902352
0.0920576
0.0938788
0.0957574
0.0976358
0.0995888
0.101531
0.103526
0.10552
0.107447
0.109321
0.111039
0.0133026
0.0129334
0.00910523
0.00511949
0.00428052
0.00601811
0.00825341
0.00994727
0.0110678
0.0118861
0.012604
0.0133152
0.0140225
0.0146731
0.0153045
0.0160301
0.0167985
0.0174678
0.0180166
0.0185248
0.0190966
0.0197641
0.0204149
0.0209803
0.0215743
0.022304
0.0230959
0.0238549
0.0245742
0.0252841
0.0260025
0.0267208
0.0274235
0.0281093
0.028781
0.0294443
0.030134
0.030875
0.0316539
0.0324398
0.0332126
0.0339745
0.0347668
0.0355903
0.0363927
0.0371824
0.0380139
0.0388803
0.0396943
0.0404395
0.0412263
0.0421271
0.0430505
0.0439636
0.044928
0.0459548
0.0469774
0.0480203
0.0491106
0.0501796
0.0511394
0.0520404
0.0530716
0.0542615
0.0554716
0.0566446
0.057838
0.0590115
0.0602026
0.0614193
0.0626626
0.0639361
0.0652727
0.0666239
0.0679903
0.0693711
0.07079
0.0722387
0.0737045
0.075232
0.0767577
0.0783435
0.0799521
0.0816174
0.0832716
0.0849424
0.0866637
0.0884137
0.0902353
0.0920577
0.0938789
0.0957575
0.0976359
0.0995889
0.101531
0.103526
0.10552
0.107447
0.109321
0.111039
0.0130281
0.0128124
0.00935164
0.00550107
0.00453039
0.00611562
0.00829457
0.00997985
0.011099
0.0119155
0.0126313
0.0133385
0.0140411
0.014689
0.0153192
0.0160423
0.016807
0.0174744
0.0180245
0.0185347
0.0191062
0.0197709
0.0204193
0.0209842
0.0215785
0.0223079
0.023099
0.0238574
0.0245765
0.0252862
0.0260046
0.0267226
0.0274251
0.0281104
0.0287818
0.0294451
0.0301347
0.0308756
0.0316543
0.0324402
0.0332132
0.0339753
0.0347675
0.0355909
0.0363934
0.0371833
0.0380148
0.0388811
0.0396951
0.0404401
0.0412268
0.0421275
0.043051
0.043964
0.0449284
0.0459553
0.0469778
0.0480207
0.0491111
0.0501802
0.05114
0.0520406
0.0530717
0.0542617
0.055472
0.0566449
0.0578383
0.0590118
0.0602028
0.0614195
0.0626628
0.0639363
0.0652729
0.0666241
0.0679905
0.0693712
0.0707901
0.0722389
0.0737047
0.0752322
0.0767578
0.0783436
0.0799522
0.0816175
0.0832718
0.0849425
0.0866638
0.0884138
0.0902354
0.0920578
0.093879
0.0957576
0.097636
0.099589
0.101531
0.103526
0.10552
0.107447
0.109322
0.11104
0.0127629
0.0126678
0.00958616
0.00589203
0.00479779
0.00622189
0.00833682
0.0100133
0.0111328
0.0119477
0.012661
0.0133641
0.0140619
0.0147072
0.0153366
0.0160568
0.016817
0.0174819
0.0180336
0.0185471
0.0191187
0.01978
0.0204253
0.0209898
0.0215844
0.0223131
0.0231028
0.0238603
0.0245792
0.0252888
0.0260071
0.026725
0.0274272
0.0281121
0.028783
0.0294461
0.0301356
0.0308762
0.0316545
0.0324404
0.0332137
0.033976
0.0347681
0.0355913
0.036394
0.0371843
0.0380159
0.0388821
0.0396959
0.0404409
0.0412275
0.0421281
0.0430515
0.0439645
0.0449289
0.0459558
0.0469783
0.0480211
0.0491116
0.0501808
0.0511406
0.0520409
0.0530718
0.0542621
0.0554725
0.0566453
0.0578387
0.0590122
0.0602031
0.0614198
0.062663
0.0639365
0.0652731
0.0666243
0.0679907
0.0693714
0.0707903
0.0722391
0.0737048
0.0752323
0.076758
0.0783438
0.0799524
0.0816177
0.0832719
0.0849427
0.0866639
0.0884139
0.0902355
0.092058
0.0938791
0.0957577
0.0976361
0.0995891
0.101531
0.103526
0.10552
0.107447
0.109322
0.111041
0.0125107
0.0125071
0.00981095
0.00629294
0.00508383
0.00633832
0.00838044
0.0100472
0.0111688
0.0119827
0.012693
0.0133914
0.0140841
0.0147269
0.0153556
0.0160731
0.0168282
0.0174901
0.0180437
0.0185608
0.019133
0.0197908
0.0204328
0.020997
0.0215923
0.0223198
0.0231075
0.0238638
0.0245823
0.0252917
0.0260098
0.0267276
0.0274296
0.0281141
0.0287848
0.0294477
0.030137
0.0308771
0.0316548
0.0324404
0.0332141
0.0339768
0.0347686
0.0355915
0.0363944
0.0371853
0.0380171
0.0388831
0.039697
0.0404421
0.0412285
0.0421289
0.0430522
0.0439652
0.0449295
0.0459562
0.0469787
0.0480216
0.0491123
0.0501816
0.0511413
0.0520412
0.053072
0.0542625
0.0554731
0.0566458
0.0578391
0.0590126
0.0602035
0.0614201
0.0626633
0.0639368
0.0652734
0.0666245
0.0679909
0.0693716
0.0707905
0.0722393
0.0737049
0.0752325
0.0767581
0.0783439
0.0799525
0.0816178
0.0832721
0.0849428
0.086664
0.088414
0.0902357
0.0920581
0.0938792
0.0957578
0.0976362
0.0995893
0.101531
0.103526
0.10552
0.107448
0.109323
0.111042
0.0122803
0.0123371
0.0100221
0.00669911
0.00538736
0.00646607
0.00842601
0.0100811
0.0112065
0.0120202
0.0127273
0.0134204
0.0141075
0.0147475
0.0153757
0.0160906
0.0168405
0.0174992
0.0180544
0.0185754
0.0191482
0.0198024
0.0204412
0.0210056
0.0216016
0.0223278
0.023113
0.0238677
0.0245857
0.0252948
0.0260125
0.0267301
0.027432
0.0281164
0.028787
0.02945
0.0301391
0.0308784
0.0316552
0.0324404
0.0332145
0.0339777
0.0347691
0.0355913
0.0363945
0.0371862
0.0380184
0.038884
0.039698
0.0404436
0.04123
0.04213
0.043053
0.0439661
0.0449302
0.0459566
0.0469789
0.0480219
0.0491129
0.0501824
0.0511421
0.0520417
0.0530724
0.0542631
0.0554737
0.0566463
0.0578396
0.0590131
0.060204
0.0614205
0.0626637
0.0639371
0.0652737
0.0666248
0.0679912
0.0693719
0.0707907
0.0722395
0.0737051
0.0752327
0.0767583
0.078344
0.0799527
0.081618
0.0832723
0.0849429
0.0866642
0.0884141
0.0902358
0.0920583
0.0938794
0.095758
0.0976364
0.0995894
0.101531
0.103526
0.105521
0.107448
0.109324
0.111043
0.0120781
0.0121614
0.0102131
0.00710456
0.00570718
0.00660688
0.00847444
0.0101145
0.0112454
0.0120603
0.012764
0.0134512
0.0141321
0.0147691
0.0153967
0.0161091
0.0168539
0.0175091
0.0180656
0.0185904
0.019164
0.0198145
0.0204502
0.021015
0.0216121
0.0223369
0.0231192
0.0238721
0.0245894
0.0252981
0.0260152
0.0267323
0.0274341
0.0281186
0.0287894
0.0294529
0.0301419
0.0308804
0.031656
0.0324406
0.0332151
0.0339787
0.0347697
0.035591
0.0363943
0.037187
0.0380194
0.0388847
0.0396988
0.0404452
0.0412318
0.0421315
0.0430543
0.0439674
0.0449313
0.045957
0.046979
0.048022
0.0491133
0.0501832
0.051143
0.0520424
0.0530728
0.0542637
0.0554744
0.0566469
0.0578402
0.0590137
0.0602046
0.061421
0.0626642
0.0639376
0.0652742
0.0666253
0.0679916
0.0693722
0.070791
0.0722398
0.0737053
0.0752329
0.0767585
0.0783442
0.0799528
0.0816182
0.0832724
0.0849431
0.0866643
0.0884142
0.090236
0.0920585
0.0938795
0.0957581
0.0976365
0.0995895
0.101532
0.103527
0.105521
0.107449
0.109325
0.111045
0.0119075
0.0119836
0.0103792
0.0075046
0.00604224
0.00676233
0.00852646
0.0101466
0.0112846
0.0121027
0.0128032
0.013484
0.014158
0.0147915
0.0154186
0.0161286
0.0168682
0.0175197
0.0180774
0.018606
0.0191802
0.0198269
0.0204593
0.0210247
0.0216233
0.0223467
0.0231261
0.0238768
0.0245934
0.0253016
0.0260179
0.0267344
0.0274359
0.0281204
0.0287919
0.0294561
0.0301454
0.0308829
0.0316571
0.0324409
0.0332158
0.03398
0.0347704
0.0355906
0.036394
0.0371877
0.0380203
0.0388849
0.0396993
0.0404467
0.0412338
0.0421332
0.0430559
0.0439693
0.0449329
0.0459578
0.046979
0.0480219
0.0491132
0.0501836
0.0511438
0.0520431
0.0530735
0.0542645
0.0554753
0.0566475
0.0578407
0.0590143
0.0602053
0.0614217
0.0626647
0.0639382
0.0652748
0.0666258
0.067992
0.0693727
0.0707914
0.0722401
0.0737056
0.0752331
0.0767587
0.0783444
0.079953
0.0816184
0.0832726
0.0849432
0.0866645
0.0884144
0.0902361
0.0920587
0.0938797
0.0957583
0.0976367
0.0995897
0.101532
0.103527
0.105522
0.10745
0.109327
0.111047
0.0117688
0.0118083
0.0105191
0.00789547
0.00639046
0.00693324
0.00858302
0.0101772
0.0113235
0.0121475
0.0128454
0.0135189
0.0141854
0.0148149
0.0154413
0.0161491
0.0168834
0.017531
0.0180898
0.0186221
0.019197
0.0198397
0.0204687
0.0210348
0.0216351
0.0223573
0.0231334
0.0238818
0.0245977
0.0253053
0.0260208
0.0267364
0.0274375
0.0281221
0.0287943
0.0294596
0.0301494
0.030886
0.0316585
0.0324414
0.0332166
0.0339814
0.0347712
0.0355902
0.0363936
0.0371882
0.0380209
0.0388847
0.0396993
0.0404479
0.0412357
0.0421349
0.0430577
0.0439717
0.0449352
0.0459591
0.0469793
0.0480215
0.0491126
0.0501834
0.0511442
0.0520439
0.0530743
0.0542656
0.0554763
0.0566482
0.0578413
0.059015
0.0602061
0.0614224
0.0626655
0.0639389
0.0652754
0.0666264
0.0679927
0.0693733
0.070792
0.0722406
0.073706
0.0752334
0.076759
0.0783446
0.0799532
0.0816186
0.0832728
0.0849434
0.0866646
0.0884145
0.0902363
0.0920589
0.0938799
0.0957585
0.0976368
0.0995898
0.101532
0.103527
0.105522
0.107451
0.109328
0.111049
0.0116609
0.0116414
0.010633
0.00827299
0.00674868
0.00712046
0.0086462
0.0102069
0.0113617
0.0121943
0.0128907
0.0135563
0.0142143
0.0148394
0.0154651
0.0161706
0.0168996
0.0175432
0.0181028
0.0186389
0.0192143
0.0198529
0.0204783
0.0210454
0.0216477
0.0223688
0.0231414
0.0238872
0.0246022
0.0253093
0.0260238
0.0267384
0.0274389
0.0281237
0.0287966
0.0294632
0.0301537
0.0308895
0.0316603
0.032442
0.0332176
0.0339831
0.0347722
0.0355899
0.0363933
0.0371888
0.0380213
0.0388841
0.0396987
0.0404488
0.0412374
0.0421365
0.0430594
0.0439742
0.044938
0.045961
0.0469801
0.048021
0.0491115
0.0501823
0.0511439
0.0520443
0.0530753
0.054267
0.0554775
0.056649
0.0578417
0.0590155
0.0602068
0.0614231
0.0626662
0.0639398
0.0652762
0.0666271
0.0679934
0.0693741
0.0707928
0.0722413
0.0737065
0.0752339
0.0767593
0.0783449
0.0799535
0.0816189
0.0832731
0.0849435
0.0866648
0.0884146
0.0902365
0.0920591
0.0938801
0.0957587
0.097637
0.09959
0.101533
0.103527
0.105523
0.107452
0.10933
0.111052
0.011582
0.0114876
0.0107216
0.00863284
0.0071142
0.0073255
0.00871874
0.0102368
0.0113988
0.012243
0.0129393
0.0135967
0.014245
0.014865
0.0154899
0.0161933
0.0169169
0.0175562
0.0181166
0.0186563
0.0192322