/*--------------------------------*- C++ -*----------------------------------*\
| =========                 |                                                 |
| \\      /  F ield         | OpenFOAM: The Open Source CFD Toolbox           |
|  \\    /   O peration     | Version:  2506                                  |
|   \\  /    A nd           | Website:  www.openfoam.com                      |
|    \\/     M anipulation  |                                                 |
\*---------------------------------------------------------------------------*/
FoamFile
{
    version     2.0;
    format      ascii;
    arch        "LSB;label=32;scalar=64";
    class       surfaceScalarField;
    location    "5.45";
    object      phi;
}
// * * * * * * * * * * * * * * * * * * * * * * * * * * * * * * * * * * * * * //

dimensions      [0 3 -1 0 0 0 0];

oriented        oriented;

internalField   nonuniform List<scalar> 
19000
(
1.22516e-06
-1.25915e-06
1.18693e-06
1.39112e-06
1.05916e-06
3.92574e-07
1.09698e-06
-1.09086e-06
1.25463e-06
-1.51039e-06
1.2202e-06
1.01032e-07
1.16581e-06
3.50097e-07
1.17313e-06
3.75116e-07
1.14915e-06
-3.29815e-07
1.14223e-06
-1.91005e-08
1.14741e-06
2.35559e-08
1.16488e-06
4.21597e-07
1.1675e-06
2.68375e-07
1.15527e-06
4.78098e-07
1.17453e-06
3.67199e-07
1.17311e-06
4.07695e-07
1.18095e-06
4.35758e-07
1.17662e-06
3.51385e-07
1.17321e-06
3.64377e-07
3.26405e-07
1.15828e-06
1.28697e-06
-1.32186e-06
1.27385e-06
1.40424e-06
1.13574e-06
5.3069e-07
1.14742e-06
-1.10255e-06
1.31383e-06
-1.6768e-06
1.28395e-06
1.30915e-07
1.22744e-06
4.06605e-07
1.2426e-06
3.59958e-07
1.21961e-06
-3.06827e-07
1.20838e-06
-7.86867e-09
1.20888e-06
2.30519e-08
1.23014e-06
4.00343e-07
1.22619e-06
2.72322e-07
1.22167e-06
4.82621e-07
1.23043e-06
3.58432e-07
1.24288e-06
3.95246e-07
1.23134e-06
4.473e-07
1.25003e-06
3.32698e-07
1.21661e-06
3.97792e-07
2.99368e-07
1.24365e-06
1.34903e-06
-1.3881e-06
1.37985e-06
1.37342e-06
1.23153e-06
6.79006e-07
1.20231e-06
-1.07333e-06
1.3723e-06
-1.84679e-06
1.36431e-06
1.38903e-07
1.30031e-06
4.70608e-07
1.32726e-06
3.33e-07
1.30125e-06
-2.80811e-07
1.28878e-06
4.60182e-09
1.27648e-06
3.53475e-08
1.30521e-06
3.71618e-07
1.28974e-06
2.87791e-07
1.2967e-06
4.75659e-07
1.29085e-06
3.64278e-07
1.31242e-06
3.73682e-07
1.29532e-06
4.64401e-07
1.30908e-06
3.1894e-07
1.29043e-06
4.16443e-07
3.02525e-07
1.28727e-06
1.41144e-06
-1.45544e-06
1.49245e-06
1.29241e-06
1.33799e-06
8.33471e-07
1.26584e-06
-1.00118e-06
1.4301e-06
-2.01105e-06
1.45625e-06
1.12751e-07
1.3852e-06
5.41661e-07
1.41921e-06
2.98982e-07
1.38724e-06
-2.48841e-07
1.37433e-06
1.75114e-08
1.34924e-06
6.04402e-08
1.37864e-06
3.42225e-07
1.35918e-06
3.07243e-07
1.36716e-06
4.67683e-07
1.35787e-06
3.73565e-07
1.37431e-06
3.57243e-07
1.3669e-06
4.71813e-07
1.36901e-06
3.16831e-07
1.36342e-06
4.22029e-07
3.14389e-07
1.35156e-06
1.473e-06
-1.52008e-06
1.59986e-06
1.16554e-06
1.44773e-06
9.85601e-07
1.33999e-06
-8.93439e-07
1.48477e-06
-2.15584e-06
1.54957e-06
4.79498e-08
1.48013e-06
6.11104e-07
1.50978e-06
2.69336e-07
1.4716e-06
-2.10666e-07
1.45534e-06
3.37758e-08
1.425e-06
9.07783e-08
1.44736e-06
3.19861e-07
1.43325e-06
3.2136e-07
1.43707e-06
4.63865e-07
1.42954e-06
3.8109e-07
1.43813e-06
3.48657e-07
1.43837e-06
4.71575e-07
1.43605e-06
3.19151e-07
1.43456e-06
4.2352e-07
3.26004e-07
1.42294e-06
1.53295e-06
-1.57736e-06
1.69173e-06
1.00677e-06
1.55377e-06
1.12356e-06
1.42257e-06
-7.62236e-07
1.53389e-06
-2.26716e-06
1.63219e-06
-5.03505e-08
1.58068e-06
6.62617e-07
1.59526e-06
2.54755e-07
1.55148e-06
-1.66885e-07
1.52946e-06
5.57884e-08
1.50166e-06
1.18585e-07
1.5159e-06
3.05623e-07
1.50986e-06
3.27395e-07
1.51165e-06
4.62077e-07
1.50557e-06
3.87171e-07
1.50853e-06
3.45695e-07
1.51137e-06
4.68738e-07
1.50878e-06
3.21733e-07
1.50971e-06
4.22598e-07
3.36578e-07
1.49913e-06
1.59173e-06
-1.62287e-06
1.76287e-06
8.35623e-07
1.65137e-06
1.23506e-06
1.50972e-06
-6.20581e-07
1.57861e-06
-2.33606e-06
1.69895e-06
-1.70692e-07
1.6801e-06
6.81468e-07
1.67633e-06
2.58526e-07
1.62667e-06
-1.17225e-07
1.59936e-06
8.31051e-08
1.57746e-06
1.40476e-07
1.58717e-06
2.95916e-07
1.5876e-06
3.26967e-07
1.59094e-06
4.58739e-07
1.5861e-06
3.92008e-07
1.5861e-06
3.45692e-07
1.58922e-06
4.65619e-07
1.58694e-06
3.24019e-07
1.5905e-06
4.19034e-07
3.46106e-07
1.58097e-06
1.6508e-06
-1.65354e-06
1.81478e-06
6.71645e-07
1.73882e-06
1.31101e-06
1.59939e-06
-4.81144e-07
1.62464e-06
-2.36131e-06
1.75334e-06
-2.99396e-07
1.77148e-06
6.6333e-07
1.75396e-06
2.76046e-07
1.69855e-06
-6.18133e-08
1.66796e-06
1.13693e-07
1.65168e-06
1.56757e-07
1.6604e-06
2.87194e-07
1.66529e-06
3.22072e-07
1.67223e-06
4.518e-07
1.66953e-06
3.94714e-07
1.66907e-06
3.46146e-07
1.67244e-06
4.6225e-07
1.66993e-06
3.26536e-07
1.67579e-06
4.13173e-07
3.54696e-07
1.6672e-06
1.71206e-06
-1.66802e-06
1.85408e-06
5.29619e-07
1.81685e-06
1.34824e-06
1.69151e-06
-3.55799e-07
1.67872e-06
-2.34852e-06
1.80231e-06
-4.22983e-07
1.85042e-06
6.15221e-07
1.82787e-06
2.98601e-07
1.76938e-06
-3.32603e-09
1.73755e-06
1.45518e-07
1.7248e-06
1.69506e-07
1.73368e-06
2.78317e-07
1.74154e-06
3.14218e-07
1.75256e-06
4.40772e-07
1.7529e-06
3.94375e-07
1.75392e-06
3.45125e-07
1.7585e-06
4.5767e-07
1.75539e-06
3.29644e-07
1.76276e-06
4.05806e-07
3.62526e-07
1.75493e-06
1.77745e-06
-1.66675e-06
1.89001e-06
4.17058e-07
1.88824e-06
1.35001e-06
1.78618e-06
-2.53737e-07
1.74474e-06
-2.30708e-06
1.85179e-06
-5.30028e-07
1.91675e-06
5.50263e-07
1.89762e-06
3.17724e-07
1.84139e-06
5.2903e-08
1.81017e-06
1.76737e-07
1.79837e-06
1.81315e-07
1.80634e-06
2.70347e-07
1.81552e-06
3.05038e-07
1.82994e-06
4.26347e-07
1.83361e-06
3.90708e-07
1.83699e-06
3.41744e-07
1.84367e-06
4.50994e-07
1.84008e-06
3.33235e-07
1.84821e-06
3.97676e-07
3.69498e-07
1.84123e-06
1.84887e-06
-1.65187e-06
1.93175e-06
3.34169e-07
1.95747e-06
1.32429e-06
1.88281e-06
-1.79069e-07
1.82283e-06
-2.24711e-06
1.90603e-06
-6.13224e-07
1.9746e-06
4.81692e-07
1.96424e-06
3.28087e-07
1.916e-06
1.01142e-07
1.88732e-06
2.05413e-07
1.87446e-06
1.94179e-07
1.87967e-06
2.6513e-07
1.88824e-06
2.96476e-07
1.90445e-06
4.10131e-07
1.91098e-06
3.84177e-07
1.91654e-06
3.36186e-07
1.92558e-06
4.41955e-07
1.92193e-06
3.36885e-07
1.93036e-06
3.89243e-07
3.75128e-07
1.92473e-06
1.9278e-06
-1.62683e-06
1.98597e-06
2.76001e-07
2.02938e-06
1.28088e-06
1.98055e-06
-1.30238e-07
1.91101e-06
-2.17757e-06
1.9686e-06
-6.70813e-07
2.03108e-06
4.19215e-07
2.03067e-06
3.28497e-07
1.99388e-06
1.3793e-07
1.96952e-06
2.29769e-07
1.9551e-06
2.08604e-07
1.95649e-06
2.6374e-07
1.96279e-06
2.90172e-07
1.97881e-06
3.94109e-07
1.98718e-06
3.75816e-07
1.99399e-06
3.29377e-07
2.00496e-06
4.30983e-07
2.00168e-06
3.40162e-07
2.01013e-06
3.80789e-07
3.78815e-07
2.00645e-06
2.01491e-06
-1.59555e-06
2.05526e-06
2.35649e-07
2.10741e-06
1.22873e-06
2.07915e-06
-1.01979e-07
2.00683e-06
-2.10524e-06
2.04214e-06
-7.06129e-07
2.09349e-06
3.67871e-07
2.1008e-06
3.21182e-07
2.07552e-06
1.63208e-07
2.05653e-06
2.48767e-07
2.04162e-06
2.23514e-07
2.03973e-06
2.6563e-07
2.04328e-06
2.86615e-07
2.05758e-06
3.79811e-07
2.06658e-06
3.66818e-07
2.07343e-06
3.22528e-07
2.08538e-06
4.19031e-07
2.08265e-06
3.42892e-07
2.0908e-06
3.72637e-07
3.80243e-07
2.08937e-06
2.10986e-06
-1.56141e-06
2.13856e-06
2.06952e-07
2.1929e-06
1.17439e-06
2.17917e-06
-8.82497e-08
2.10827e-06
-2.03434e-06
2.12737e-06
-7.25231e-07
2.1666e-06
3.2864e-07
2.17784e-06
3.09942e-07
2.16159e-06
1.79459e-07
2.14798e-06
2.62377e-07
2.13447e-06
2.37031e-07
2.13115e-06
2.68945e-07
2.13285e-06
2.84919e-07
2.14495e-06
3.67708e-07
2.15369e-06
3.58074e-07
2.15957e-06
3.16656e-07
2.17136e-06
4.0724e-07
2.16901e-06
3.45235e-07
2.17639e-06
3.65256e-07
3.79584e-07
2.17705e-06
2.21172e-06
-1.52665e-06
2.23304e-06
1.85633e-07
2.28572e-06
1.12171e-06
2.28171e-06
-8.42382e-08
2.21409e-06
-1.96672e-06
2.22298e-06
-7.34123e-07
2.25171e-06
2.99906e-07
2.26348e-06
2.98179e-07
2.25301e-06
1.89923e-07
2.24405e-06
2.71332e-07
2.23358e-06
2.47511e-07
2.2309e-06
2.71616e-07
2.23234e-06
2.83488e-07
2.24275e-06
3.57292e-07
2.25091e-06
3.49918e-07
2.25533e-06
3.12234e-07
2.26604e-06
3.96528e-07
2.26379e-06
3.47487e-07
2.26993e-06
3.5912e-07
3.77394e-07
2.27212e-06
2.31953e-06
-1.4923e-06
2.33609e-06
1.6907e-07
2.38544e-06
1.07236e-06
2.388e-06
-8.68e-08
2.32378e-06
-1.9025e-06
2.32675e-06
-7.37095e-07
2.34766e-06
2.78992e-07
2.35805e-06
2.87797e-07
2.3508e-06
1.97169e-07
2.34546e-06
2.76671e-07
2.33882e-06
2.5415e-07
2.33809e-06
2.72349e-07
2.34057e-06
2.81007e-07
2.35016e-06
3.47699e-07
2.35782e-06
3.42262e-07
2.36092e-06
3.09127e-07
2.37013e-06
3.87319e-07
2.36782e-06
3.49803e-07
2.37246e-06
3.54478e-07
3.74287e-07
2.37557e-06
2.43264e-06
-1.45854e-06
2.44614e-06
1.55566e-07
2.4919e-06
1.02661e-06
2.49905e-06
-9.39517e-08
2.43743e-06
-1.84088e-06
2.43686e-06
-7.36521e-07
2.45263e-06
2.63214e-07
2.46127e-06
2.79158e-07
2.45585e-06
2.02593e-07
2.45315e-06
2.79373e-07
2.45028e-06
2.57016e-07
2.45171e-06
2.7092e-07
2.45567e-06
2.77047e-07
2.46502e-06
3.38349e-07
2.47234e-06
3.34937e-07
2.47461e-06
3.06861e-07
2.4824e-06
3.79526e-07
2.48012e-06
3.52085e-07
2.48339e-06
3.51208e-07
3.70676e-07
2.487e-06
2.55086e-06
-1.4251e-06
2.56261e-06
1.43817e-07
2.60524e-06
9.83968e-07
2.61556e-06
-1.04272e-07
2.55548e-06
-1.78079e-06
2.55243e-06
-7.3347e-07
2.56526e-06
2.50379e-07
2.57274e-06
2.71682e-07
2.5687e-06
2.06635e-07
2.56784e-06
2.80224e-07
2.56813e-06
2.56732e-07
2.57119e-06
2.67857e-07
2.57622e-06
2.7202e-07
2.5854e-06
3.29172e-07
2.59237e-06
3.27967e-07
2.59427e-06
3.04953e-07
2.60103e-06
3.7277e-07
2.59905e-06
3.54067e-07
2.60138e-06
3.48872e-07
3.66692e-07
2.60537e-06
2.67429e-06
-1.39156e-06
2.68537e-06
1.32732e-07
2.72569e-06
9.43649e-07
2.73801e-06
-1.16593e-07
2.67849e-06
-1.72127e-06
2.67341e-06
-7.28389e-07
2.68488e-06
2.38909e-07
2.69206e-06
2.64507e-07
2.68947e-06
2.09223e-07
2.68988e-06
2.79814e-07
2.69246e-06
2.54147e-07
2.69639e-06
2.63932e-07
2.70166e-06
2.66744e-07
2.71038e-06
3.2046e-07
2.71676e-06
3.21587e-07
2.71857e-06
3.0314e-07
2.72472e-06
3.66621e-07
2.72331e-06
3.55473e-07
2.72526e-06
3.46919e-07
3.62254e-07
2.7297e-06
2.80322e-06
-1.35752e-06
2.81449e-06
1.21464e-07
2.85333e-06
9.04816e-07
2.86669e-06
-1.29956e-07
2.80707e-06
-1.66165e-06
2.80019e-06
-7.21517e-07
2.81134e-06
2.27768e-07
2.81891e-06
2.56929e-07
2.81798e-06
2.1016e-07
2.81921e-06
2.78586e-07
2.82324e-06
2.50114e-07
2.82738e-06
2.59791e-07
2.83212e-06
2.62008e-07
2.84001e-06
3.12568e-07
2.84552e-06
3.16073e-07
2.84725e-06
3.01416e-07
2.85313e-06
3.6074e-07
2.85248e-06
3.56117e-07
2.8545e-06
3.44907e-07
3.57201e-07
2.85955e-06
2.93807e-06
-1.3227e-06
2.95008e-06
1.09463e-07
2.98812e-06
8.66774e-07
3.00182e-06
-1.43655e-07
2.94175e-06
-1.60158e-06
2.93326e-06
-7.13029e-07
2.9447e-06
2.16327e-07
2.95308e-06
2.48549e-07
2.95389e-06
2.09343e-07
2.95562e-06
2.76858e-07
2.96035e-06
2.45383e-07
2.96435e-06
2.55796e-07
2.96803e-06
2.58323e-07
2.9749e-06
3.05703e-07
2.97941e-06
3.11566e-07
2.98091e-06
2.99915e-07
2.98672e-06
3.54924e-07
2.98692e-06
3.55916e-07
2.9892e-06
3.42633e-07
3.51417e-07
2.99498e-06
3.07927e-06
-1.28697e-06
3.09226e-06
9.64762e-08
3.12998e-06
8.29055e-07
3.14357e-06
-1.57248e-07
3.08302e-06
-1.54103e-06
3.07305e-06
-7.03061e-07
3.08512e-06
2.04264e-07
3.09441e-06
2.3925e-07
3.09692e-06
2.06835e-07
3.09894e-06
2.74841e-07
3.10378e-06
2.40546e-07
3.10752e-06
2.52053e-07
3.10997e-06
2.55872e-07
3.1158e-06
2.99871e-07
3.11938e-06
3.07987e-07
3.12052e-06
2.98772e-07
3.12635e-06
3.49098e-07
3.12743e-06
3.54832e-07
3.12994e-06
3.4013e-07
3.44914e-07
3.13644e-06
3.22726e-06
-1.25031e-06
3.24126e-06
8.24706e-08
3.27888e-06
7.91435e-07
3.29214e-06
-1.70505e-07
3.23132e-06
-1.48021e-06
3.21996e-06
-6.91707e-07
3.23274e-06
1.91483e-07
3.24289e-06
2.29099e-07
3.2469e-06
2.02828e-07
3.2491e-06
2.72643e-07
3.25363e-06
2.36019e-07
3.25719e-06
2.4849e-07
3.25846e-06
2.546e-07
3.2634e-06
2.94931e-07
3.2663e-06
3.05085e-07
3.26706e-06
2.98012e-07
3.27286e-06
3.43298e-07
3.27488e-06
3.5282e-07
3.27748e-06
3.37522e-07
3.37921e-07
3.28448e-06
3.38242e-06
-1.2128e-06
3.39736e-06
6.75272e-08
3.43492e-06
7.53879e-07
3.44772e-06
-1.83311e-07
3.387e-06
-1.41948e-06
3.37434e-06
-6.79047e-07
3.38776e-06
1.78062e-07
3.39859e-06
2.18267e-07
3.40385e-06
1.97575e-07
3.40621e-06
2.7028e-07
3.41018e-06
2.32052e-07
3.41372e-06
2.44951e-07
3.41401e-06
2.54308e-07
3.41823e-06
2.90703e-07
3.4208e-06
3.02519e-07
3.42126e-06
2.97553e-07
3.42695e-06
3.3761e-07
3.42994e-06
3.49829e-07
3.43258e-06
3.34886e-07
3.30819e-07
3.43968e-06
3.54512e-06
-1.17451e-06
3.5609e-06
5.17494e-08
3.59832e-06
7.16458e-07
3.61059e-06
-1.95576e-07
3.5504e-06
-1.3593e-06
3.53653e-06
-6.65175e-07
3.55041e-06
1.64182e-07
3.5617e-06
2.06971e-07
3.56795e-06
1.91331e-07
3.57052e-06
2.67708e-07
3.57382e-06
2.28753e-07
3.5775e-06
2.41272e-07
3.57708e-06
2.54727e-07
3.58072e-06
2.87057e-07
3.58328e-06
2.9996e-07
3.58361e-06
2.97226e-07
3.58909e-06
3.32128e-07
3.59305e-06
3.45864e-07
3.59581e-06
3.32128e-07
3.24028e-07
3.6026e-06
3.71571e-06
-1.13551e-06
3.73224e-06
3.52188e-08
3.76944e-06
6.79256e-07
3.78106e-06
-2.07189e-07
3.7218e-06
-1.30004e-06
3.70684e-06
-6.50218e-07
3.72097e-06
1.50058e-07
3.73251e-06
1.95428e-07
3.73953e-06
1.84313e-07
3.74239e-06
2.6485e-07
3.745e-06
2.26135e-07
3.74894e-06
2.37336e-07
3.74811e-06
2.55558e-07
3.75121e-06
2.83959e-07
3.75401e-06
2.97157e-07
3.75443e-06
2.96805e-07
3.75961e-06
3.26951e-07
3.76445e-06
3.41026e-07
3.76757e-06
3.29001e-07
3.17835e-07
3.77377e-06
3.89453e-06
-1.09586e-06
3.91175e-06
1.80011e-08
3.9487e-06
6.42305e-07
3.95951e-06
-2.18002e-07
3.9015e-06
-1.24203e-06
3.88562e-06
-6.34337e-07
3.89978e-06
1.35895e-07
3.91139e-06
1.83824e-07
3.91901e-06
1.7669e-07
3.92224e-06
2.61624e-07
3.92422e-06
2.24156e-07
3.92846e-06
2.33095e-07
3.92751e-06
2.56499e-07
3.93001e-06
2.81464e-07
3.93321e-06
2.93959e-07
3.93395e-06
2.96058e-07
3.93877e-06
3.22132e-07
3.9443e-06
3.35503e-07
3.94802e-06
3.25274e-07
3.12204e-07
3.95365e-06
4.08196e-06
-1.05557e-06
4.09978e-06
1.77557e-10
4.13653e-06
6.05562e-07
4.14638e-06
-2.27862e-07
4.08981e-06
-1.18546e-06
4.0732e-06
-6.17727e-07
4.08722e-06
1.21876e-07
4.09876e-06
1.72291e-07
4.10686e-06
1.68586e-07
4.11052e-06
2.57968e-07
4.11191e-06
2.22759e-07
4.11645e-06
2.28554e-07
4.11566e-06
2.57295e-07
4.11746e-06
2.79659e-07
4.1211e-06
2.90323e-07
4.12234e-06
2.94817e-07
4.12686e-06
3.17614e-07
4.13279e-06
3.29574e-07
4.13727e-06
3.20793e-07
3.06865e-07
4.14261e-06
4.2784e-06
-1.01467e-06
4.29671e-06
-1.81272e-08
4.33334e-06
5.6893e-07
4.34212e-06
-2.36644e-07
4.28709e-06
-1.13042e-06
4.26995e-06
-6.00591e-07
4.28367e-06
1.08159e-07
4.29505e-06
1.60914e-07
4.30355e-06
1.6008e-07
4.30768e-06
2.53845e-07
4.30855e-06
2.21883e-07
4.31335e-06
2.23758e-07
4.3129e-06
2.57738e-07
4.31398e-06
2.78584e-07
4.31792e-06
2.86385e-07
4.31978e-06
2.92955e-07
4.32409e-06
3.13302e-07
4.33023e-06
3.23432e-07
4.33539e-06
3.15636e-07
3.01425e-07
4.34083e-06
4.48432e-06
-9.73215e-07
4.50293e-06
-3.6739e-08
4.53956e-06
5.32302e-07
4.5472e-06
-2.44287e-07
4.49372e-06
-1.07694e-06
4.47628e-06
-5.83146e-07
4.48955e-06
9.4886e-08
4.5007e-06
1.49759e-07
4.50956e-06
1.51221e-07
4.51418e-06
2.4923e-07
4.51457e-06
2.21488e-07
4.51956e-06
2.18769e-07
4.51963e-06
2.57668e-07
4.51999e-06
2.78227e-07
4.52398e-06
2.82391e-07
4.52652e-06
2.90419e-07
4.53072e-06
3.09104e-07
4.53696e-06
3.1719e-07
4.54267e-06
3.09931e-07
2.95629e-07
4.54846e-06
4.70019e-06
-9.31292e-07
4.71891e-06
-5.54547e-08
4.75559e-06
4.95622e-07
4.76211e-06
-2.50808e-07
4.71014e-06
-1.02497e-06
4.69259e-06
-5.65601e-07
4.70531e-06
8.21708e-08
4.71617e-06
1.38896e-07
4.72536e-06
1.42031e-07
4.7305e-06
2.44093e-07
4.73043e-06
2.21557e-07
4.73554e-06
2.13658e-07
4.73628e-06
2.5693e-07
4.73595e-06
2.78553e-07
4.73977e-06
2.78571e-07
4.74303e-06
2.87165e-07
4.74709e-06
3.05042e-07
4.75336e-06
3.10914e-07
4.75956e-06
3.03739e-07
2.89463e-07
4.76572e-06
4.92652e-06
-8.89013e-07
4.94514e-06
-7.40734e-08
4.98183e-06
4.58928e-07
4.98733e-06
-2.56308e-07
4.9368e-06
-9.74438e-07
4.91936e-06
-5.48164e-07
4.93144e-06
7.00947e-08
4.94191e-06
1.28421e-07
4.95142e-06
1.32528e-07
4.95713e-06
2.38381e-07
4.95661e-06
2.22076e-07
4.96173e-06
2.08533e-07
4.9633e-06
2.55364e-07
4.9624e-06
2.79451e-07
4.96582e-06
2.75154e-07
4.96991e-06
2.83079e-07
4.97387e-06
3.01079e-07
4.98e-06
3.04785e-07
4.98656e-06
2.97174e-07
2.83008e-07
4.99302e-06
5.16381e-06
-8.46504e-07
5.18217e-06
-9.24352e-08
5.21871e-06
4.22387e-07
5.22338e-06
-2.60976e-07
5.17421e-06
-9.25274e-07
5.15705e-06
-5.30998e-07
5.16849e-06
5.86497e-08
5.17844e-06
1.1848e-07
5.1882e-06
1.22767e-07
5.19457e-06
2.32009e-07
5.19365e-06
2.22994e-07
5.19861e-06
2.03569e-07
5.20116e-06
2.52816e-07
5.19995e-06
2.80666e-07
5.20272e-06
2.7238e-07
5.20759e-06
2.78209e-07
5.21174e-06
2.96932e-07
5.21743e-06
2.99093e-07
5.22427e-06
2.90332e-07
2.76399e-07
5.23088e-06
5.41257e-06
-8.03889e-07
5.43059e-06
-1.10451e-07
5.46666e-06
3.86312e-07
5.47078e-06
-2.65087e-07
5.42291e-06
-8.77411e-07
5.40613e-06
-5.14221e-07
5.41706e-06
4.7722e-08
5.4263e-06
1.09247e-07
5.43619e-06
1.12869e-07
5.44333e-06
2.24875e-07
5.44213e-06
2.24194e-07
5.44668e-06
1.99016e-07
5.45038e-06
2.49122e-07
5.44917e-06
2.81876e-07
5.45108e-06
2.70467e-07
5.45659e-06
2.727e-07
5.46126e-06
2.92263e-07
5.46631e-06
2.94035e-07
5.47319e-06
2.83453e-07
2.69578e-07
5.48001e-06
5.67335e-06
-7.61277e-07
5.691e-06
-1.28103e-07
5.72617e-06
3.51143e-07
5.73008e-06
-2.68998e-07
5.68346e-06
-8.30796e-07
5.66713e-06
-4.97886e-07
5.67774e-06
3.71136e-08
5.68609e-06
1.00896e-07
5.69593e-06
1.0303e-07
5.70394e-06
2.1686e-07
5.70262e-06
2.25512e-07
5.70651e-06
1.95131e-07
5.71146e-06
2.4417e-07
5.71056e-06
2.82771e-07
5.71155e-06
2.6948e-07
5.7174e-06
2.6685e-07
5.72286e-06
2.86801e-07
5.72739e-06
2.89514e-07
5.73394e-06
2.76894e-07
2.62518e-07
5.741e-06
5.94667e-06
-7.18758e-07
5.96402e-06
-1.45452e-07
5.99775e-06
3.17415e-07
6.00189e-06
-2.73135e-07
5.95645e-06
-7.85363e-07
5.94052e-06
-4.81955e-07
5.95108e-06
2.65587e-08
5.95845e-06
9.35259e-08
5.96795e-06
9.35253e-08
5.97694e-06
2.07876e-07
5.97572e-06
2.26735e-07
5.97872e-06
1.92126e-07
5.98491e-06
2.37979e-07
5.9847e-06
2.82984e-07
5.98481e-06
2.69372e-07
5.99059e-06
2.61065e-07
5.997e-06
2.80393e-07
6.0013e-06
2.85218e-07
6.00721e-06
2.70983e-07
2.55366e-07
6.01436e-06
6.23314e-06
-6.76409e-07
6.25029e-06
-1.626e-07
6.28211e-06
2.85595e-07
6.28684e-06
-2.77873e-07
6.24255e-06
-7.4107e-07
6.22675e-06
-4.66155e-07
6.23762e-06
1.56939e-08
6.24403e-06
8.71069e-08
6.2529e-06
8.46565e-08
6.26285e-06
1.97928e-07
6.26199e-06
2.27592e-07
6.264e-06
1.90123e-07
6.27121e-06
2.30764e-07
6.27218e-06
2.82019e-07
6.2715e-06
2.70051e-07
6.2768e-06
2.55766e-07
6.28412e-06
2.73065e-07
6.28865e-06
2.80687e-07
6.2937e-06
2.65935e-07
2.48403e-07
6.30067e-06
6.53336e-06
-6.34298e-07
6.55043e-06
-1.79673e-07
6.58012e-06
2.55904e-07
6.58549e-06
-2.83241e-07
6.54258e-06
-6.98159e-07
6.52637e-06
-4.4994e-07
6.53783e-06
4.22786e-09
6.54351e-06
8.14272e-08
6.55146e-06
7.67092e-08
6.56224e-06
1.87141e-07
6.56204e-06
2.27798e-07
6.56302e-06
1.89138e-07
6.57094e-06
2.22852e-07
6.57349e-06
2.79461e-07
6.57223e-06
2.71315e-07
6.57666e-06
2.51333e-07
6.58477e-06
2.64962e-07
6.58997e-06
2.75482e-07
6.59423e-06
2.61677e-07
2.41982e-07
6.60065e-06
6.848e-06
-5.92504e-07
6.86509e-06
-1.96768e-07
6.89264e-06
2.28359e-07
6.89825e-06
-2.88859e-07
6.85732e-06
-6.57226e-07
6.84012e-06
-4.32744e-07
6.85217e-06
-7.82182e-09
6.85755e-06
7.60481e-08
6.86434e-06
6.99224e-08
6.87574e-06
1.75744e-07
6.87645e-06
2.27089e-07
6.8765e-06
1.89081e-07
6.88471e-06
2.14644e-07
6.88913e-06
2.75044e-07
6.88762e-06
2.72828e-07
6.89089e-06
2.48063e-07
6.8995e-06
2.56348e-07
6.90575e-06
2.69235e-07
6.90958e-06
2.57849e-07
2.36451e-07
6.91511e-06
7.17776e-06
-5.51127e-07
7.1949e-06
-2.13911e-07
7.22046e-06
2.02807e-07
7.22554e-06
-2.93943e-07
7.18745e-06
-6.19136e-07
7.16891e-06
-4.14205e-07
7.18118e-06
-2.00887e-08
7.18679e-06
7.04347e-08
7.19231e-06
6.44029e-08
7.20401e-06
1.64042e-07
7.20582e-06
2.25283e-07
7.20511e-06
1.89784e-07
7.21324e-06
2.06517e-07
7.21956e-06
2.6872e-07
7.21828e-06
2.74113e-07
7.22023e-06
2.46113e-07
7.22892e-06
2.47657e-07
7.2365e-06
2.61658e-07
7.24031e-06
2.54037e-07
2.31857e-07
7.2449e-06
7.5234e-06
-5.10303e-07
7.54052e-06
-2.31033e-07
7.5644e-06
1.78932e-07
7.56788e-06
-2.97427e-07
7.53359e-06
-5.84839e-07
7.51368e-06
-3.94302e-07
7.5255e-06
-3.19042e-08
7.53183e-06
6.41038e-08
7.53615e-06
6.0078e-08
7.54779e-06
1.52401e-07
7.55077e-06
2.22308e-07
7.54955e-06
1.91007e-07
7.55723e-06
1.98839e-07
7.56531e-06
2.60637e-07
7.56482e-06
2.746e-07
7.56555e-06
2.4539e-07
7.57369e-06
2.39518e-07
7.58268e-06
2.52667e-07
7.58701e-06
2.49707e-07
2.28029e-07
7.59083e-06
7.88571e-06
-4.70202e-07
7.90264e-06
-2.47966e-07
7.9253e-06
1.56272e-07
7.92604e-06
-2.98165e-07
7.89627e-06
-5.55071e-07
7.87541e-06
-3.73437e-07
7.88595e-06
-4.24507e-08
7.89324e-06
5.68154e-08
7.89662e-06
5.67039e-08
7.90783e-06
1.4119e-07
7.91196e-06
2.18173e-07
7.91048e-06
1.92494e-07
7.91739e-06
1.91926e-07
7.92695e-06
2.51081e-07
7.92781e-06
2.73736e-07
7.92752e-06
2.45681e-07
7.93459e-06
2.3244e-07
7.94476e-06
2.42503e-07
7.95018e-06
2.44282e-07
2.24662e-07
7.95355e-06
8.26551e-06
-4.31035e-07
8.28193e-06
-2.64376e-07
8.304e-06
1.34197e-07
8.30094e-06
-2.95105e-07
8.27599e-06
-5.30119e-07
8.2552e-06
-3.52646e-07
8.26346e-06
-5.07144e-08
8.27156e-06
4.87187e-08
8.27441e-06
5.38502e-08
8.28487e-06
1.30735e-07
8.29003e-06
2.13009e-07
8.28852e-06
1.94e-07
8.29438e-06
1.86065e-07
8.30512e-06
2.40344e-07
8.30769e-06
2.71173e-07
8.30689e-06
2.46471e-07
8.31255e-06
2.2679e-07
8.32334e-06
2.31707e-07
8.33027e-06
2.37355e-07
2.21278e-07
8.33365e-06
8.66368e-06
-3.93055e-07
8.67894e-06
-2.79633e-07
8.70128e-06
1.11855e-07
8.69372e-06
-2.87542e-07
8.67297e-06
-5.09371e-07
8.65334e-06
-3.33015e-07
8.65877e-06
-5.61496e-08
8.66729e-06
4.01977e-08
8.67009e-06
5.10555e-08
8.67959e-06
1.2123e-07
8.68556e-06
2.0704e-07
8.68424e-06
1.95327e-07
8.6889e-06
1.81397e-07
8.70049e-06
2.28757e-07
8.705e-06
2.66664e-07
8.70441e-06
2.4706e-07
8.70851e-06
2.22693e-07
8.71919e-06
2.21022e-07
8.72779e-06
2.2876e-07
2.17353e-07
8.73171e-06
9.08111e-06
-3.56543e-07
9.09455e-06
-2.93073e-07
9.11789e-06
8.85147e-08
9.1059e-06
-2.75557e-07
9.08766e-06
-4.91128e-07
9.07072e-06
-3.16079e-07
9.07316e-06
-5.85834e-08
9.08125e-06
3.21047e-08
9.08414e-06
4.81665e-08
9.09262e-06
1.12753e-07
9.09919e-06
2.00469e-07
9.09826e-06
1.96257e-07
9.10173e-06
1.7792e-07
9.11379e-06
2.16699e-07
9.12042e-06
2.60038e-07
9.12075e-06
2.46726e-07
9.12353e-06
2.19912e-07
9.13331e-06
2.11245e-07
9.14332e-06
2.18755e-07
2.12321e-07
9.14835e-06
9.51872e-06
-3.21799e-07
9.52976e-06
-3.04112e-07
9.55455e-06
6.37185e-08
9.53903e-06
-2.60034e-07
9.52103e-06
-4.73129e-07
9.50795e-06
-3.03003e-07
9.50766e-06
-5.82896e-08
9.51426e-06
2.5506e-08
9.51718e-06
4.52467e-08
9.52483e-06
1.05099e-07
9.5319e-06
1.93405e-07
9.53167e-06
1.96482e-07
9.53397e-06
1.75618e-07
9.54592e-06
2.04748e-07
9.5548e-06
2.51161e-07
9.55668e-06
2.4485e-07
9.5587e-06
2.17892e-07
9.56693e-06
2.03012e-07
9.57771e-06
2.07977e-07
2.05817e-07
9.58421e-06
9.97747e-06
-2.89137e-07
9.9856e-06
-3.12241e-07
1.00121e-05
3.72442e-08
9.99405e-06
-2.42005e-07
9.9742e-06
-4.53284e-07
9.96547e-06
-2.94272e-07
9.96337e-06
-5.61906e-08
9.96752e-06
2.13587e-08
9.97034e-06
4.24277e-08
9.97744e-06
9.80023e-08
9.98508e-06
1.85758e-07
9.98591e-06
1.95659e-07
9.98703e-06
1.74493e-07
9.99825e-06
1.93529e-07
1.00092e-05
2.40249e-07
1.0013e-05
2.41023e-07
1.0015e-05
2.15921e-07
1.00214e-05
1.96545e-07
1.00321e-05
1.97304e-07
1.97813e-07
1.00401e-05
1.04584e-05
-2.58876e-07
1.04631e-05
-3.1701e-07
1.04913e-05
9.12937e-09
1.04719e-05
-2.22681e-07
1.04486e-05
-4.2997e-07
1.0444e-05
-2.89609e-07
1.04416e-05
-5.38329e-08
1.04428e-05
2.0209e-08
1.04448e-05
4.03877e-08
1.04517e-05
9.10584e-08
1.04602e-05
1.77328e-07
1.04621e-05
1.93694e-07
1.04624e-05
1.74266e-07
1.04723e-05
1.83596e-07
1.04847e-05
2.27855e-07
1.04906e-05
2.35113e-07
1.04931e-05
2.13409e-07
1.04981e-05
1.91513e-07
1.05078e-05
1.87613e-07
1.88656e-07
1.0517e-05
1.09624e-05
-2.31303e-07
1.09635e-05
-3.18084e-07
1.0993e-05
-2.03651e-08
1.09736e-05
-2.0331e-07
1.09464e-05
-4.02767e-07
1.09444e-05
-2.87567e-07
1.09436e-05
-5.30635e-08
1.09419e-05
2.19857e-08
1.0942e-05
4.02388e-08
1.0949e-05
8.40519e-08
1.09583e-05
1.68009e-07
1.09616e-05
1.9041e-07
1.09614e-05
1.74488e-07
1.09696e-05
1.75391e-07
1.09826e-05
2.14821e-07
1.09905e-05
2.27264e-07
1.09939e-05
2.09959e-07
1.09982e-05
1.87224e-07
1.10064e-05
1.79387e-07
1.79072e-07
1.1016e-05
1.14907e-05
-2.06643e-07
1.14879e-05
-3.15235e-07
1.15182e-05
-5.06604e-08
1.15001e-05
-1.85293e-07
1.14695e-05
-3.72132e-07
1.14677e-05
-2.85726e-07
1.14701e-05
-5.54777e-08
1.14665e-05
2.55452e-08
1.1464e-05
4.27191e-08
1.14703e-05
7.77965e-08
1.14804e-05
1.57882e-07
1.14853e-05
1.85542e-07
1.14852e-05
1.74553e-07
1.14915e-05
1.69099e-07
1.15043e-05
2.01989e-07
1.15138e-05
2.1782e-07
1.15184e-05
2.05385e-07
1.15225e-05
1.83063e-07
1.15294e-05
1.7252e-07
1.69873e-07
1.15386e-05
1.20442e-05
-1.85026e-07
1.20374e-05
-3.08425e-07
1.20674e-05
-8.06652e-08
1.20524e-05
-1.70275e-07
1.20191e-05
-3.38869e-07
1.20149e-05
-2.81549e-07
1.20214e-05
-6.19873e-08
1.20178e-05
2.92324e-08
1.20125e-05
4.79858e-08
1.20169e-05
7.33729e-08
1.20275e-05
1.4732e-07
1.20341e-05
1.78951e-07
1.20347e-05
1.73925e-07
1.20393e-05
1.64453e-07
1.20513e-05
1.90083e-07
1.20618e-05
2.07258e-07
1.20675e-05
1.99663e-07
1.20719e-05
1.7867e-07
1.2078e-05
1.66499e-07
1.61565e-07
1.20863e-05
1.2624e-05
-1.66454e-07
1.26135e-05
-2.979e-07
1.26421e-05
-1.0923e-07
1.26313e-05
-1.59504e-07
1.25965e-05
-3.04096e-07
1.25881e-05
-2.73173e-07
1.25981e-05
-7.19681e-08
1.25962e-05
3.11131e-08
1.25887e-05
5.55542e-08
1.25905e-05
7.15943e-08
1.26008e-05
1.37007e-07
1.2609e-05
1.70716e-07
1.26108e-05
1.7216e-07
1.26144e-05
1.60844e-07
1.26248e-05
1.79625e-07
1.26359e-05
1.96154e-07
1.26428e-05
1.92819e-07
1.26475e-05
1.73974e-07
1.26531e-05
1.6083e-07
1.54154e-07
1.26606e-05
1.32313e-05
-1.5079e-07
1.32176e-05
-2.84209e-07
1.32435e-05
-1.35184e-07
1.32378e-05
-1.53816e-07
1.32027e-05
-2.68997e-07
1.31894e-05
-2.59793e-07
1.32004e-05
-8.30507e-08
1.32023e-05
2.93082e-08
1.31937e-05
6.41168e-08
1.31926e-05
7.27188e-08
1.32017e-05
1.27844e-07
1.32112e-05
1.61246e-07
1.32145e-05
1.68896e-07
1.32176e-05
1.5771e-07
1.32265e-05
1.70698e-07
1.32376e-05
1.85106e-07
1.32454e-05
1.84978e-07
1.32505e-05
1.68862e-07
1.3256e-05
1.55387e-07
1.47296e-07
1.32628e-05
1.38671e-05
-1.37756e-07
1.38514e-05
-2.68479e-07
1.38734e-05
-1.57195e-07
1.38728e-05
-1.53254e-07
1.38386e-05
-2.3479e-07
1.38203e-05
-2.41483e-07
1.38297e-05
-9.2438e-08
1.38362e-05
2.28648e-08
1.38284e-05
7.18473e-08
1.38248e-05
7.63373e-08
1.3832e-05
1.20691e-07
1.3842e-05
1.51167e-07
1.3847e-05
1.63958e-07
1.38501e-05
1.54605e-07
1.38578e-05
1.63028e-07
1.38682e-05
1.74634e-07
1.38767e-05
1.76462e-07
1.38825e-05
1.63129e-07
1.38877e-05
1.50182e-07
1.40776e-07
1.38942e-05
1.45329e-05
-1.26948e-07
1.45158e-05
-2.51436e-07
1.4533e-05
-1.74426e-07
1.45367e-05
-1.5686e-07
1.4505e-05
-2.03138e-07
1.44827e-05
-2.19206e-07
1.44881e-05
-9.78392e-08
1.44987e-05
1.23154e-08
1.44937e-05
7.6786e-08
1.44884e-05
8.16326e-08
1.44932e-05
1.15972e-07
1.45031e-05
1.41275e-07
1.45095e-05
1.57505e-07
1.45131e-05
1.50985e-07
1.45198e-05
1.56331e-07
1.45295e-05
1.64938e-07
1.45382e-05
1.67777e-07
1.45446e-05
1.567e-07
1.45497e-05
1.45067e-07
1.34639e-07
1.45559e-05
1.52298e-05
-1.1789e-07
1.52127e-05
-2.34295e-07
1.52243e-05
-1.8602e-07
1.523e-05
-1.62617e-07
1.52025e-05
-1.75616e-07
1.51778e-05
-1.94543e-07
1.5178e-05
-9.79644e-08
1.51908e-05
-5.07772e-10
1.51903e-05
7.72969e-08
1.51846e-05
8.72781e-08
1.5187e-05
1.13576e-07
1.51959e-05
1.32404e-07
1.52034e-05
1.50026e-07
1.5208e-05
1.46412e-07
1.5214e-05
1.50304e-07
1.52229e-05
1.55993e-07
1.52314e-05
1.59317e-07
1.52383e-05
1.49762e-07
1.52437e-05
1.39697e-07
1.2898e-07
1.52494e-05
1.59595e-05
-1.10028e-07
1.59432e-05
-2.18027e-07
1.59482e-05
-1.91e-07
1.59545e-05
-1.6896e-07
1.59323e-05
-1.53431e-07
1.59071e-05
-1.69308e-07
1.59021e-05
-9.29321e-08
1.59143e-05
-1.27438e-08
1.59188e-05
7.28241e-08
1.59146e-05
9.14562e-08
1.59151e-05
1.13117e-07
1.59224e-05
1.25113e-07
1.59303e-05
1.42093e-07
1.59359e-05
1.40841e-07
1.59417e-05
1.44491e-07
1.59499e-05
1.47761e-07
1.59581e-05
1.5116e-07
1.59651e-05
1.42724e-07
1.5971e-05
1.33843e-07
1.23681e-07
1.59763e-05
1.67233e-05
-1.02771e-07
1.67058e-05
-2.00499e-07
1.67051e-05
-1.90332e-07
1.67121e-05
-1.75924e-07
1.6696e-05
-1.37355e-07
1.66722e-05
-1.45469e-07
1.6663e-05
-8.37247e-08
1.6672e-05
-2.17277e-08
1.66804e-05
6.43814e-08
1.66794e-05
9.2491e-08
1.66786e-05
1.13914e-07
1.66842e-05
1.19536e-07
1.6692e-05
1.34293e-07
1.66983e-05
1.34527e-07
1.67043e-05
1.3851e-07
1.6712e-05
1.40062e-07
1.67198e-05
1.43266e-07
1.67267e-05
1.35869e-07
1.67329e-05
1.27668e-07
1.18397e-07
1.67382e-05
1.75234e-05
-9.58154e-08
1.75087e-05
-1.85751e-07
1.75018e-05
-1.83507e-07
1.75057e-05
-1.79831e-07
1.74952e-05
-1.26803e-07
1.74744e-05
-1.24665e-07
1.74625e-05
-7.18203e-08
1.7467e-05
-2.62851e-08
1.74771e-05
5.43224e-08
1.74798e-05
8.97681e-08
1.74791e-05
1.14596e-07
1.7483e-05
1.15637e-07
1.74901e-05
1.27184e-07
1.7497e-05
1.27714e-07
1.75032e-05
1.32261e-07
1.75106e-05
1.32683e-07
1.75183e-05
1.35581e-07
1.7525e-05
1.29178e-07
1.75311e-05
1.2157e-07
1.12803e-07
1.75367e-05
1.83614e-05
-8.88524e-08
1.83481e-05
-1.72469e-07
1.83379e-05
-1.73349e-07
1.83385e-05
-1.80337e-07
1.83318e-05
-1.20199e-07
1.83147e-05
-1.07491e-07
1.83016e-05
-5.87929e-08
1.8302e-05
-2.66029e-08
1.83113e-05
4.50158e-08
1.83171e-05
8.39012e-08
1.8318e-05
1.13688e-07
1.83206e-05
1.13086e-07
1.83267e-05
1.21062e-07
1.83337e-05
1.20738e-07
1.83402e-05
1.25757e-07
1.83474e-05
1.25492e-07
1.83549e-05
1.28075e-07
1.83615e-05
1.22525e-07
1.83674e-05
1.1572e-07
1.06973e-07
1.83732e-05
1.92393e-05
-8.17953e-08
1.92278e-05
-1.60915e-07
1.92155e-05
-1.61108e-07
1.92122e-05
-1.7703e-07
1.92079e-05
-1.15851e-07
1.91945e-05
-9.40599e-08
1.91816e-05
-4.58966e-08
1.91787e-05
-2.36998e-08
1.91856e-05
3.80791e-08
1.91934e-05