/*--------------------------------*- C++ -*----------------------------------*\
| =========                 |                                                 |
| \\      /  F ield         | OpenFOAM: The Open Source CFD Toolbox           |
|  \\    /   O peration     | Version:  2506                                  |
|   \\  /    A nd           | Website:  www.openfoam.com                      |
|    \\/     M anipulation  |                                                 |
\*---------------------------------------------------------------------------*/
FoamFile
{
    version     2.0;
    format      ascii;
    arch        "LSB;label=32;scalar=64";
    class       volScalarField;
    location    "8.45";
    object      p;
}
// * * * * * * * * * * * * * * * * * * * * * * * * * * * * * * * * * * * * * //

dimensions      [0 2 -2 0 0 0 0];

internalField   nonuniform List<scalar> 
9600
(
1.12043e-11
0.00207682
0.00129357
0.000149712
-0.000724525
-0.00158647
-0.000171854
0.000322067
0.00422842
0.00287387
0.00459585
0.00301541
0.0036081
0.00352128
0.00252695
0.00392316
0.00352641
0.00672169
0.00745668
0.0134779
-3.25457e-06
0.00207917
0.00128722
0.000152732
-0.000720295
-0.00157943
-0.00016753
0.000315633
0.00423294
0.00285479
0.00459383
0.00300015
0.003603
0.00350665
0.00253623
0.00391921
0.00355453
0.00669773
0.00748877
0.0128574
-6.90321e-06
0.00208261
0.00127859
0.000156248
-0.000716883
-0.00156923
-0.000163604
0.000305486
0.00423066
0.00282839
0.00458206
0.00299034
0.00359205
0.00350349
0.00255495
0.00391151
0.00359769
0.00664047
0.00750951
0.0123643
-9.45688e-06
0.00208458
0.00126842
0.000157868
-0.000712724
-0.00155569
-0.000158256
0.000293242
0.00422618
0.00279891
0.00456872
0.00298763
0.00358115
0.00350588
0.00257961
0.0039025
0.00364786
0.00656914
0.00751483
0.011877
-1.04828e-05
0.00208376
0.00125606
0.00015802
-0.000706684
-0.00153781
-0.000148695
0.000279333
0.00422397
0.00276918
0.00455579
0.00299191
0.0035713
0.00351169
0.00260733
0.00389205
0.00369743
0.00649731
0.00749965
0.0113996
-9.99774e-06
0.00208005
0.00124252
0.000157762
-0.000696905
-0.00151509
-0.000134553
0.000263207
0.00422338
0.00274062
0.00454337
0.00300214
0.00356258
0.0035186
0.00263582
0.00387923
0.00374405
0.00643017
0.00746174
0.0109321
-8.30497e-06
0.00207428
0.00122917
0.000158406
-0.000681753
-0.00148766
-0.000116792
0.000244759
0.00422345
0.00271377
0.0045318
0.0030171
0.00355491
0.00352584
0.00266349
0.00386651
0.0037857
0.00636681
0.00740091
0.0104823
-5.8496e-06
0.0020675
0.00121694
0.000161109
-0.000660437
-0.00145557
-9.58025e-05
0.000225105
0.00422373
0.00268787
0.00452101
0.00303579
0.00354825
0.00353328
0.00268885
0.00385609
0.00381838
0.00630554
0.0073191
0.0100481
-3.05545e-06
0.00206056
0.00120621
0.000166538
-0.000633113
-0.00141838
-7.1374e-05
0.000205898
0.00422397
0.0026613
0.00451057
0.0030577
0.0035422
0.0035418
0.00271053
0.00384943
0.00383934
0.0062463
0.00721811
0.00961749
-2.02327e-07
0.002054
0.00119691
0.000174784
-0.00060059
-0.00137559
-4.33246e-05
0.000188703
0.00422409
0.0026327
0.00449961
0.00308249
0.00353607
0.00355273
0.00272691
0.00384744
0.00384881
0.00618742
0.00709847
0.00918077
2.5788e-06
0.00204802
0.00118863
0.000185491
-0.000563989
-0.00132728
-1.18001e-05
0.000174503
0.00422385
0.00260173
0.00448688
0.00310987
0.00352897
0.00356688
0.00273672
0.00385079
0.00384817
0.00612627
0.00696356
0.00873421
5.24712e-06
0.00204251
0.00118092
0.000198125
-0.000524491
-0.00127437
2.25472e-05
0.000163397
0.00422268
0.00256917
0.00447068
0.00313931
0.00351966
0.00358464
0.00273902
0.00385912
0.00383881
0.00606017
0.00682182
0.00827863
7.81577e-06
0.00203728
0.00117349
0.000212196
-0.000482986
-0.0012184
5.86407e-05
0.000154904
0.00421964
0.00253626
0.00444911
0.00317034
0.00350651
0.00360597
0.00273322
0.00387084
0.003823
0.00598509
0.00668092
0.00781771
1.03309e-05
0.00203211
0.00116619
0.000227259
-0.000439881
-0.00116079
9.53963e-05
0.000148525
0.00421352
0.00250399
0.00442052
0.00320249
0.00348793
0.00363033
0.00271934
0.00388371
0.0038035
0.00589521
0.0065454
0.00735854
1.28506e-05
0.00202686
0.00115897
0.000242895
-0.00039532
-0.00110237
0.000132152
0.000144131
0.00420312
0.00247285
0.00438372
0.00323557
0.0034628
0.00365734
0.00269773
0.00389502
0.00378355
0.005784
0.00641691
0.00691013
1.54294e-05
0.00202142
0.00115186
0.000258753
-0.000349363
-0.00104345
0.000168753
0.000141996
0.00418757
0.00244309
0.00433792
0.00326994
0.00343057
0.00368669
0.00266912
0.00390139
0.0037673
0.00564658
0.00629347
0.00648141
1.81107e-05
0.00201572
0.00114497
0.00027452
-0.000301967
-0.00098402
0.000205335
0.000142468
0.00416632
0.00241505
0.00428266
0.00330647
0.00339108
0.00371777
0.00263505
0.00389878
0.00375898
0.00548134
0.00617043
0.00608008
2.09231e-05
0.0020097
0.00113845
0.000289904
-0.00025304
-0.000923941
0.000242064
0.000145614
0.00413894
0.00238946
0.00421754
0.00334613
0.00334447
0.00374946
0.00259802
0.00388243
0.00376159
0.00529016
0.00604078
0.0057097
2.38869e-05
0.00200331
0.0011325
0.000304614
-0.000202486
-0.000863147
0.000278957
0.000151226
0.00410509
0.00236751
0.00414218
0.00338956
0.00329135
0.00377987
0.0025614
0.00384725
0.00377609
0.00507831
0.00589633
0.00537327
2.70399e-05
0.00199644
0.00112736
0.000318386
-0.000150227
-0.000801686
0.000315854
0.000159079
0.00406436
0.00235052
0.00405626
0.00343691
0.00323292
0.00380605
0.00252914
0.00378879
0.00380119
0.00485349
0.00572812
0.00507473
3.04504e-05
0.00198894
0.00112325
0.000330983
-9.62375e-05
-0.000739612
0.000352497
0.000169061
0.00401623
0.0023395
0.00395972
0.00348774
0.00317118
0.00382431
0.00250499
0.00370424
0.00383302
0.00462531
0.0055276
0.00481429
3.42077e-05
0.00198063
0.00112041
0.000342191
-4.0547e-05
-0.000676943
0.000388544
0.000181175
0.00396016
0.00233521
0.00385284
0.00354092
0.00310853
0.00383087
0.00249192
0.00359324
0.00386476
0.004404
0.00529102
0.00458653
3.84212e-05
0.00197128
0.0011191
0.000351852
1.67619e-05
-0.000613669
0.000423559
0.000195612
0.00389562
0.0023382
0.00373632
0.0035947
0.00304764
0.00382199
0.00249179
0.00345782
0.00388737
0.00419911
0.00502101
0.00438037
4.32359e-05
0.00196064
0.00111952
0.000359896
7.55342e-05
-0.000549636
0.000457025
0.000212673
0.00382214
0.00234854
0.00361107
0.00364698
0.00299153
0.0037941
0.00250462
0.00330231
0.00389094
0.00401854
0.00472472
0.00418072
4.88283e-05
0.00194841
0.00112184
0.000366268
0.000135518
-0.000484544
0.000488383
0.00023263
0.00373942
0.00236593
0.00347585
0.00369518
0.0029433
0.00374448
0.00252838
0.00313286
0.00386637
0.00386572
0.00441177
0.0039744
5.53988e-05
0.00193428
0.00112625
0.000370997
0.000196324
-0.000418063
0.000517092
0.000255714
0.00364739
0.00238992
0.00333826
0.00373622
0.00290578
0.00367177
0.00255942
0.00295702
0.00380665
0.00373879
0.00409364
0.00375207
6.31583e-05
0.00191794
0.0011329
0.000374253
0.000257416
-0.000349812
0.000542673
0.000281976
0.00354635
0.00242092
0.00319944
0.0037671
0.00288114
0.00357592
0.00259258
0.00278304
0.00370787
0.00363174
0.00378287
0.00350847
7.23194e-05
0.00189905
0.00114188
0.000376242
0.000318212
-0.000279342
0.000564717
0.000311336
0.00343688
0.00245441
0.0030615
0.00378528
0.00287011
0.00345865
0.00262128
0.00261874
0.00357064
0.00353485
0.00348976
0.0032439
8.31306e-05
0.00187734
0.00115311
0.000377262
0.000378079
-0.000206224
0.000583047
0.000343596
0.00331977
0.00248543
0.00292711
0.00378845
0.0028724
0.00332311
0.00263815
0.00247029
0.0033994
0.0034363
0.00322153
0.00296315
9.58324e-05
0.00185259
0.00116644
0.000377691
0.000436237
-0.000130071
0.000597709
0.000378293
0.00319605
0.00251454
0.00279894
0.00377471
0.0028869
0.00317377
0.00263555
0.00234133
0.00320222
0.0033249
0.00298144
0.0026742
0.000110631
0.00182461
0.00118167
0.000377965
0.000491929
-5.05523e-05
0.000608769
0.000414639
0.00306702
0.00253972
0.0026794
0.00374288
0.00291139
0.00301606
0.00260724
0.00223229
0.00298951
0.00319249
0.00276755
0.00238692
0.000127717
0.00179335
0.00119837
0.000378615
0.000544569
3.24865e-05
0.000616443
0.000451578
0.00293459
0.00255859
0.00256959
0.00369261
0.00294293
0.0028558
0.00254939
0.00214038
0.00277174
0.00303522
0.0025735
0.00211052
0.000147262
0.00175889
0.00121605
0.000380149
0.000593584
0.000119032
0.000621214
0.000487936
0.00280092
0.00256912
0.00246967
0.0036238
0.00297791
0.00269921
0.00246024
0.00205986
0.00255853
0.00285344
0.00239093
0.00185163
0.00016943
0.00172134
0.00123421
0.000383081
0.000638449
0.00020886
0.000623782
0.000522541
0.00266778
0.00257003
0.00237956
0.00353672
0.00301175
0.00255191
0.00234094
0.00198322
0.0023572
0.00265154
0.00221168
0.00161351
0.000194336
0.00168092
0.00125232
0.000387916
0.000678649
0.000301595
0.000625163
0.000554063
0.00253647
0.00256054
0.00229886
0.00343263
0.00303917
0.00241794
0.00219546
0.00190207
0.00217242
0.00243692
0.00202822
0.00139546
0.000222034
0.0016379
0.00126982
0.000395195
0.000713669
0.000396765
0.000626512
0.000580884
0.00240813
0.00254046
0.00222696
0.00331337
0.00305452
0.00229963
0.00202933
0.00180933
0.00200528
0.00221775
0.00183684
0.0011949
0.000252548
0.00159253
0.00128615
0.000405545
0.000743141
0.000493503
0.00062892
0.000601745
0.00228392
0.00251009
0.00216257
0.00318067
0.00305269
0.00219696
0.00184947
0.0017001
0.00185292
0.00200233
0.00163789
0.00100664
0.000285938
0.00154507
0.0013008
0.000419588
0.000766672
0.000590615
0.000633686
0.000615798
0.00216417
0.0024698
0.00210414
0.00303707
0.00303019
0.00210795
0.00166295
0.0015709
0.00171068
0.00179821
0.00143331
0.000823261
0.000322325
0.00149582
0.00131319
0.00043804
0.00078401
0.000686605
0.000642181
0.0006227
0.00204806
0.00241983
0.00205059
0.00288586
0.00298464
0.00202943
0.00147616
0.00142065
0.00157291
0.00160975
0.00122841
0.000639678
0.000361693
0.00144516
0.00132265
0.000461477
0.000795436
0.000779805
0.000657826
0.000623015
0.00193436
0.00235985
0.00200118
0.00272979
0.00291457
0.00195776
0.0012944
0.00125056
0.00143278
0.00143827
0.00103189
0.000454687
0.000403773
0.00139384
0.00132856
0.000490138
0.000801542
0.000868407
0.000681644
0.000617305
0.00182167
0.00229008
0.00195518
0.00257164
0.00281992
0.00188876
0.00112185
0.00106372
0.00128319
0.00128105
0.000851843
0.000272132
0.000448305
0.00134279
0.00133022
0.000523969
0.000803357
0.000950113
0.000713422
0.000607272
0.00170888
0.00227312
0.00191134
0.00241442
0.0027019
0.00181864
0.000962256
0.000864908
0.001119
0.00113159
0.000691449
0.000100515
0.000494847
0.00129333
0.0013267
0.000562336
0.000802925
0.00102253
0.000752846
0.000595661
0.00159351
0.002188
0.00186539
0.00226026
0.00256401
0.00174471
0.000817739
0.000659542
0.000937584
0.000982911
0.000547791
-5.30736e-05
0.000542651
0.00124729
0.00131707
0.000604054
0.000803094
0.00108385
0.000798938
0.000584415
0.00147553
0.00208554
0.00181353
0.00210917
0.00241057
0.00166555
0.000689482
0.000452719
0.000737199
0.000830529
0.000417432
-0.000187906
0.000590987
0.00120614
0.001301
0.000647421
0.000806605
0.00113339
0.000848161
0.000576088
0.00135561
0.00197158
0.00175156
0.00195905
0.0022451
0.00158071
0.000578523
0.000250197
0.00051809
0.000669954
0.000297533
-0.000307422
0.00063894
0.00117098
0.00127953
0.000689627
0.000814941
0.00117182
0.000895862
0.000571951
0.00123727
0.00184625
0.00167809
0.00180824
0.00206994
0.00148909
0.00048447
6.04908e-05
0.000285031
0.000492771
0.000183767
-0.000412035
0.00068562
0.00114245
0.00125482
0.000727207
0.000827827
0.00120161
0.000939011
0.000571682
0.00112264
0.00171217
0.00159397
0.001657
0.00188645
0.00138772
0.000404523
-0.000107853
4.70468e-05
0.000291628
6.84603e-05
-0.000500783
0.000730557
0.00112083
0.00122927
0.000757815
0.000842892
0.00122628
0.000976829
0.000569835
0.00101189
0.00157492
0.00150168
0.00150805
0.0016967
0.00127382
0.000332294
-0.000252574
-0.000184562
6.82569e-05
-6.08014e-05
-0.00057711
0.000773593
0.00110544
0.00120551
0.000780523
0.000855748
0.00124804
0.00100965
0.000562151
0.000903823
0.00144016
0.00140777
0.0013654
0.00150215
0.00114448
0.000260786
-0.000376518
-0.000399896
-0.000168569
-0.000213842
-0.000647125
0.000814759
0.00109684
0.00118582
0.000795688
0.000861702
0.00126663
0.00104043
0.000549683
0.000795859
0.00130649
0.00131593
0.00123156
0.00130579
0.000997586
0.000184442
-0.000484233
-0.000594924
-0.000405743
-0.000390237
-0.000722722
0.000854204
0.00108941
0.0011707
0.000804936
0.000857401
0.00127987
0.00107248
0.000534272
0.0006838
0.00117276
0.00122696
0.00110957
0.00111345
0.000833592
9.76012e-05
-0.000580962
-0.000770843
-0.000632495
-0.000583038
-0.000817085
0.000892065
0.00108523
0.00116018
0.000811158
0.000841467
0.00128347
0.00110621
0.000519541
0.000568196
0.00103424
0.00113742
0.00100333
0.000932847
0.000659159
-4.95212e-06
-0.000672139
-0.000928078
-0.0008446
-0.000781905
-0.000933777
0.000928631
0.00108344
0.00115345
0.00081762
0.000814723
0.00127139
0.00113914
0.000513499
0.000453701
0.000882423
0.00104222
0.000911979
0.000772327
0.000482564
-0.000124796
-0.000764335
-0.00106849
-0.00104143
-0.000976627
-0.00106587
0.000964522
0.00108325
0.00114903
0.000827129
0.000779176
0.00123801
0.00116722
0.00052276
0.000344772
0.000718415
0.000933016
0.000828914
0.000637201
0.000313746
-0.000256677
-0.000864681
-0.00119904
-0.00122388
-0.00116276
-0.00120484
0.00100068
0.00108461
0.00114457
0.000841512
0.00073741
0.00118002
0.00118278
0.00054763
0.000252945
0.000548127
0.000801332
0.000746382
0.000526563
0.000164699
-0.000391189
-0.000974218
-0.0013262
-0.00139433
-0.00134024
-0.00134239
0.00103578
0.00108929
0.00116632
0.000861853
0.000693634
0.00109791
0.0011779
0.000584866
0.000189429
0.000377491
0.000645387
0.000650718
0.000432327
4.19666e-05
-0.000518054
-0.00108868
-0.00145307
-0.00155724
-0.00151327
-0.00147598
0.00107151
0.00108388
0.00116483
0.00088836
0.000650682
0.000994894
0.00115012
0.000631421
0.000157154
0.000223084
0.000472401
0.000530993
0.000344238
-5.67557e-05
-0.000626487
-0.00120053
-0.00157937
-0.00171435
-0.00168469
-0.00161013
0.00111599
0.00110162
0.00113663
0.000894882
0.000609042
0.000876968
0.00109755
0.000678809
0.00015145
9.63343e-05
0.000290937
0.000383438
0.000246301
-0.000138871
-0.000710174
-0.00129825
-0.00170086
-0.00186429
-0.00185324
-0.0017505
0.00115377
0.00109928
0.00111513
0.000911861
0.000586269
0.000755708
0.00101435
0.000711381
0.000168681
2.39252e-07
0.00011771
0.000215752
0.000125596
-0.000216239
-0.000772801
-0.00137317
-0.00181041
-0.00200594
-0.0020162
-0.00189892
0.0011887
0.00111015
0.00108269
0.000918934
0.000579674
0.00064254
0.000901578
0.000715981
0.00020089
-6.49017e-05
-3.57306e-05
3.90399e-05
-1.871e-05
-0.00030467
-0.000822864
-0.00142347
-0.00189773
-0.00213591
-0.00217024
-0.00205045
0.00122168
0.00111563
0.0010483
0.000914396
0.000583855
0.000547106
0.000767224
0.000685829
0.000234776
-0.000100613
-0.000164037
-0.000130698
-0.000176555
-0.00041294
-0.000873523
-0.00145495
-0.00195651
-0.00224514
-0.00231203
-0.00219823
0.00124456
0.00112464
0.00101583
0.000898633
0.00059253
0.000475044
0.000628572
0.000621497
0.000255588
-0.000110633
-0.000262402
-0.000286484
-0.000339473
-0.000539265
-0.00093742
-0.00147799
-0.00199024
-0.00232472
-0.00243544
-0.00233655
0.0012617
0.00112355
0.000988773
0.000874545
0.000597595
0.000424253
0.000497819
0.000527424
0.000252856
-0.000106049
-0.000328814
-0.000418522
-0.000495429
-0.000673155
-0.0010179
-0.00150638
-0.00200759
-0.00237446
-0.00253303
-0.00246086
0.00127463
0.00113807
0.000954668
0.000833422
0.000593161
0.000391036
0.000385834
0.000414433
0.00022264
-0.000101385
-0.000369417
-0.000521205
-0.00063618
-0.000808168
-0.00110978
-0.00154604
-0.00201949
-0.00240078
-0.00260038
-0.00256415
0.00127797
0.00112281
0.000931821
0.000795476
0.000577837
0.000369002
0.000295982
0.000297583
0.00016769
-0.000104095
-0.000392124
-0.000596018
-0.000753026
-0.000935057
-0.00120576
-0.00159421
-0.00203355
-0.00241187
-0.00263953
-0.00264136
0.00127741
0.00113742
0.000900942
0.00074281
0.000549886
0.000348266
0.000225215
0.000188077
9.31975e-05
-0.00012035
-0.000402212
-0.000644678
-0.000840993
-0.00104385
-0.00130001
-0.00164618
-0.00204957
-0.00241369
-0.0026535
-0.00268718
0.00126359
0.00109631
0.000888992
0.00070363
0.000511965
0.000323886
0.000169775
9.44997e-05
1.0057e-05
-0.000153983
-0.000407072
-0.000667708
-0.000899017
-0.00112834
-0.00138655
-0.00170115
-0.0020697
-0.00241527
-0.0026536
-0.00270707
0.0012503
0.00110104
0.000843994
0.000655202
0.000468269
0.000294737
0.00012524
1.77521e-05
-7.20171e-05
-0.000202299
-0.000417914
-0.000671756
-0.00092507
-0.0011758
-0.00144567
-0.00174512
-0.00208324
-0.00241327
-0.00264723
-0.00270998
0.00123058
0.0010751
0.000812227
0.000609122
0.000416445
0.000254971
8.24278e-05
-4.52638e-05
-0.000141272
-0.000252696
-0.000436905
-0.000671447
-0.00092801
-0.0011898
-0.00146604
-0.00176116
-0.002077
-0.00239071
-0.0026224
-0.0026926
0.0011922
0.0010374
0.000791142
0.000574159
0.000367855
0.00020898
4.05041e-05
-9.65078e-05
-0.000198682
-0.000294968
-0.000450631
-0.000662632
-0.000911128
-0.0011751
-0.00145258
-0.00174354
-0.00204328
-0.00234109
-0.00257172
-0.00264976
0.00115981
0.00100602
0.000741523
0.000517506
0.000314524
0.000157679
-5.89871e-06
-0.000142988
-0.000248462
-0.000333859
-0.000457554
-0.000636804
-0.000864445
-0.00112011
-0.0013944
-0.00168178
-0.00197173
-0.00225732
-0.00248865
-0.00257622
0.00111287
0.000955502
0.000693904
0.000470489
0.00026473
0.000106165
-5.34844e-05
-0.000188176
-0.000292403
-0.000359579
-0.00044692
-0.000583604
-0.000776868
-0.00100784
-0.00126701
-0.00154834
-0.00183346
-0.00210891
-0.00234103
-0.00244419
0.00105258
0.000897709
0.000646611
0.000421416
0.000201231
4.17908e-05
-0.000105735
-0.000238533
-0.000377594
-0.000457394
-0.000524689
-0.000601989
-0.000724817
-0.000899278
-0.0011132
-0.00136542
-0.00164123
-0.00191464
-0.00215109
-0.0022782
0.00098948
0.000836856
0.00058566
0.00036652
0.000151661
-1.95551e-05
-0.000166979
-0.000260361
-0.000291281
-0.000323486
-0.000359432
-0.000418094
-0.000494207
-0.000617164
-0.000783726
-0.000978804
-0.00120378
-0.00144905
-0.00170627
-0.00191591
0.000913712
0.000743939
0.00048295
0.000274253
0.000102143
-2.5767e-05
-0.000198571
-0.000388575
-0.000601016
-0.000714677
-0.00070555
-0.00057186
-0.00042495
-0.000388512
-0.000451491
-0.000527009
-0.00056203
-0.000518113
-0.000419789
-0.000343023
0.000840407
0.000699587
0.000457016
0.000227087
-1.01249e-05
-0.000190867
-0.000305582
-0.000273615
-0.000204134
-0.000210965
-0.00024338
-0.000281195
-0.000304928
-0.000309195
-0.00030679
-0.000270038
-0.000195219
-0.000108742
-5.82857e-05
-0.000111133
0.000639014
0.000463165
0.000309969
0.000246142
0.000184163
9.38525e-05
-7.37307e-05
-0.000220568
-0.000343258
-0.000414472
-0.000445393
-0.000450045
-0.000438496
-0.000414351
-0.000368941
-0.00028733
-0.000158841
-5.78674e-06
0.000140351
0.000204191
0.000660738
0.000565686
0.000387877
0.000246961
0.000115283
-9.59131e-06
-0.000115522
-0.000209215
-0.000279228
-0.00026949
-0.00022784
-0.000195306
-0.000158392
-0.000133334
-0.000154965
-0.000251883
-0.000450539
-0.000757588
-0.00114189
-0.00151819
0.000471713
0.000326288
0.000228415
0.000232728
0.0002293
0.000168394
-3.53512e-06
-0.000159748
-0.000269583
-0.000318783
-0.000312057
-0.000296557
-0.00027192
-0.000212738
-0.000129338
-2.54463e-05
0.000104697
0.000251334
0.000372026
0.000384584
0.000437236
0.000325393
0.0002748
0.000315725
0.000308098
0.000190377
-3.49143e-06
-0.000164599
-0.000276178
-0.000325186
-0.000291617
-0.00021088
-0.000125876
-1.1717e-05
0.000131949
0.000282619
0.000422412
0.000521965
0.000534978
0.000391994
0.0168982
0.00892283
0.000489744
-0.00535964
-0.00703567
-0.00642457
-0.00552357
-0.00470446
-0.00393827
-0.003316
-0.00286151
-0.00261019
-0.00264273
-0.00281861
-0.00289026
-0.00285508
-0.00286073
-0.00295217
-0.00307231
-0.00317332
-0.00327072
-0.00341171
-0.0036163
-0.00384991
-0.00407558
-0.00425558
-0.00433331
-0.00430648
-0.00426546
-0.00428913
-0.00437578
-0.0044366
-0.00442849
-0.00444623
-0.00455437
-0.00464998
-0.00467474
-0.00471776
-0.0047954
-0.00483243
-0.00484561
-0.00489311
-0.00494577
-0.00497939
-0.00501795
-0.00508757
-0.00516814
-0.00526815
-0.00538567
-0.00549044
-0.0055444
-0.00557313
-0.00559979
-0.00562902
-0.00564446
-0.00570181
-0.00582177
-0.005923
-0.00596668
-0.00603536
-0.00613211
-0.00620362
-0.00625808
-0.0063275
-0.00639888
-0.00642568
-0.00646909
-0.00653842
-0.00669499
-0.00688567
-0.00701485
-0.00704532
-0.00708441
-0.00714712
-0.00719519
-0.00728677
-0.00742433
-0.00754862
-0.0076242
-0.00772192
-0.0078463
-0.00794455
-0.00806776
-0.00818649
-0.00831987
-0.00841458
-0.00851393
-0.00862308
-0.00873088
-0.00884927
-0.00894252
-0.00903768
-0.00911327
-0.00925018
-0.0093235
-0.00949385
-0.00958331
-0.00966015
-0.00998427
-0.0100256
0.0160495
0.00877476
0.000584319
-0.00520635
-0.00695066
-0.00638678
-0.00550079
-0.00468878
-0.00392668
-0.00330676
-0.00285331
-0.00260214
-0.00263511
-0.00281199
-0.00288445
-0.00284975
-0.00285584
-0.00294779
-0.00306842
-0.00316983
-0.00326754
-0.00340881
-0.00361367
-0.00384755
-0.00407347
-0.00425375
-0.00433171
-0.00430496
-0.00426396
-0.00428769
-0.00437452
-0.00443555
-0.00442751
-0.00444521
-0.00455344
-0.00464922
-0.00467402
-0.00471703
-0.00479476
-0.00483185
-0.00484503
-0.00489255
-0.00494526
-0.00497889
-0.00501744
-0.00508707
-0.00516765
-0.00526765
-0.0053852
-0.00549001
-0.005544
-0.00557273
-0.00559939
-0.00562865
-0.00564409
-0.00570141
-0.00582139
-0.00592268
-0.00596636
-0.00603502
-0.00613179
-0.00620333
-0.0062578
-0.00632721
-0.00639862
-0.00642544
-0.00646884
-0.00653816
-0.00669472
-0.00688544
-0.00701465
-0.00704514
-0.00708421
-0.00714695
-0.00719502
-0.00728659
-0.00742416
-0.00754848
-0.00762406
-0.00772177
-0.00784616
-0.00794443
-0.00806763
-0.00818637
-0.00831975
-0.00841447
-0.00851382
-0.00862297
-0.00873077
-0.00884917
-0.00894242
-0.00903758
-0.00911317
-0.00925009
-0.00932341
-0.00949377
-0.00958325
-0.00966006
-0.00998422
-0.0100257
0.0152563
0.00858861
0.000747439
-0.00492088
-0.00679267
-0.00633151
-0.005475
-0.00466922
-0.00391072
-0.00329473
-0.00284472
-0.00259549
-0.00262913
-0.0028062
-0.00287885
-0.00284455
-0.00285124
-0.00294371
-0.00306469
-0.00316635
-0.00326434
-0.00340595
-0.00361122
-0.00384544
-0.00407164
-0.00425216
-0.00433029
-0.00430355
-0.00426254
-0.00428634
-0.00437336
-0.00443458
-0.00442657
-0.00444424
-0.0045526
-0.00464855
-0.00467335
-0.00471637
-0.00479422
-0.00483135
-0.00484449
-0.00489206
-0.00494483
-0.00497845
-0.00501698
-0.00508663
-0.00516722
-0.00526723
-0.00538481
-0.00548967
-0.00554367
-0.00557238
-0.00559905
-0.00562831
-0.00564375
-0.00570105
-0.00582107
-0.00592241
-0.00596607
-0.00603472
-0.00613153
-0.00620308
-0.00625754
-0.00632697
-0.00639841
-0.00642522
-0.00646861
-0.0065379
-0.00669448
-0.00688526
-0.00701452
-0.00704497
-0.00708403
-0.0071468
-0.00719486
-0.00728642
-0.00742402
-0.00754837
-0.00762394
-0.00772164
-0.00784605
-0.00794432
-0.00806752
-0.00818627
-0.00831966
-0.00841438
-0.00851372
-0.00862287
-0.00873068
-0.00884908
-0.00894234
-0.0090375
-0.00911309
-0.00925002
-0.00932334
-0.00949371
-0.0095832
-0.00965997
-0.00998416
-0.0100259
0.0144902
0.00838771
0.000959545
-0.0045425
-0.00656053
-0.00624598
-0.00543531
-0.00463937
-0.00388698
-0.00327757
-0.00283386
-0.00258899
-0.00262373
-0.00279992
-0.00287214
-0.00283871
-0.00284654
-0.00293952
-0.00306043
-0.00316196
-0.0032601
-0.00340223
-0.00360819
-0.00384297
-0.00406946
-0.00425018
-0.00432849
-0.00430187
-0.00426091
-0.00428474
-0.00437189
-0.00443334
-0.00442543
-0.00444314
-0.00455164
-0.00464774
-0.00467256
-0.00471564
-0.00479362
-0.00483077
-0.00484388
-0.00489154
-0.00494439
-0.00497799
-0.0050165
-0.00508618
-0.00516679
-0.00526681
-0.00538442
-0.00548934
-0.00554336
-0.00557205
-0.0055987
-0.00562797
-0.00564338
-0.00570067
-0.00582076
-0.00592215
-0.00596578
-0.00603441
-0.00613126
-0.00620283
-0.00625729
-0.00632672
-0.0063982
-0.006425
-0.00646836
-0.00653763
-0.00669421
-0.00688511
-0.0070144
-0.00704481
-0.00708384
-0.00714664
-0.00719469
-0.00728624
-0.00742388
-0.00754826
-0.00762381
-0.0077215
-0.00784594
-0.0079442
-0.0080674
-0.00818616
-0.00831956
-0.00841429
-0.00851362
-0.00862278
-0.00873059
-0.008849
-0.00894226
-0.00903743
-0.009113
-0.00924994
-0.00932326
-0.00949363
-0.00958315
-0.00965985
-0.00998407
-0.0100261
0.0137345
0.00817981
0.00119524
-0.00412871
-0.0062929
-0.00614381
-0.00538909
-0.00460398
-0.00385791
-0.00325605
-0.00282034
-0.00258181
-0.00261794
-0.00279187
-0.002863
-0.00283129
-0.00284138
-0.00293525
-0.0030558
-0.00315669
-0.00325462
-0.00339721
-0.00360408
-0.00383964
-0.00406639
-0.0042471
-0.00432567
-0.00429955
-0.00425892
-0.00428266
-0.00436973
-0.00443145
-0.00442389
-0.00444175
-0.00455031
-0.00464654
-0.0046715
-0.00471473
-0.00479283
-0.00483
-0.00484314
-0.00489092
-0.00494387
-0.00497746
-0.00501596
-0.0050857
-0.00516635
-0.00526637
-0.00538402
-0.005489
-0.00554304
-0.00557169
-0.00559831
-0.00562758
-0.00564298
-0.00570027
-0.00582043
-0.00592187
-0.00596547
-0.00603409
-0.00613098
-0.00620256
-0.00625701
-0.00632646
-0.00639797
-0.00642476
-0.0064681
-0.00653731
-0.00669392
-0.00688494
-0.00701429
-0.00704462
-0.00708362
-0.00714647
-0.00719449
-0.00728604
-0.00742373
-0.00754814
-0.00762367
-0.00772135
-0.00784582
-0.00794408
-0.00806728
-0.00818605
-0.00831946
-0.00841419
-0.00851351
-0.00862268
-0.00873048
-0.00884891
-0.00894217
-0.00903734
-0.0091129
-0.00924986
-0.00932317
-0.00949355
-0.00958311
-0.0096597
-0.00998394
-0.0100263
0.013003
0.00796388
0.0014236
-0.00370828
-0.00600536
-0.00603239
-0.0053423
-0.00456811
-0.0038272
-0.00323271
-0.00280562
-0.00257421
-0.00261128
-0.00278148
-0.00285091
-0.00282178
-0.00283538
-0.00293079
-0.00305096
-0.00315091
-0.00324831
-0.00339117
-0.003599
-0.00383542
-0.00406217
-0.00424236
-0.00432115
-0.00429616
-0.00425638
-0.00427992
-0.00436654
-0.00442862
-0.00442184
-0.00443998
-0.00454838
-0.0046447
-0.00467004
-0.00471357
-0.00479174
-0.00482894
-0.00484219
-0.00489017
-0.0049432
-0.00497678
-0.0050153
-0.00508515
-0.00516588
-0.0052659
-0.00538357
-0.00548863
-0.00554271
-0.00557132
-0.00559787
-0.00562712
-0.00564255
-0.00569985
-0.00582007
-0.00592156
-0.00596515
-0.00603376
-0.00613069
-0.00620227
-0.00625671
-0.00632617
-0.00639771
-0.00642449
-0.00646781
-0.00653697
-0.00669358
-0.00688477
-0.00701418
-0.00704441
-0.00708337
-0.00714628
-0.00719427
-0.0072858
-0.00742355
-0.00754801
-0.00762351
-0.00772117
-0.00784568
-0.00794394
-0.00806714
-0.00818592
-0.00831936
-0.00841409
-0.00851339
-0.00862258
-0.00873038
-0.00884882
-0.00894208
-0.00903725
-0.00911279
-0.00924977
-0.00932307
-0.00949345
-0.00958307
-0.00965952
-0.00998373
-0.0100266
0.0123051
0.00772621
0.00162441
-0.00328761
-0.00569635
-0.0059099
-0.00529542
-0.004533
-0.00379574
-0.0032083
-0.00279033
-0.00256644
-0.00260391
-0.00276921
-0.00283636
-0.00281028
-0.00282829
-0.00292591
-0.00304595
-0.003145
-0.00324179
-0.00338478
-0.00359351
-0.00383075
-0.00405702
-0.00423588
-0.0043146
-0.0042913
-0.00425302
-0.00427627
-0.00436205
-0.00442463
-0.00441924
-0.00443782
-0.00454571
-0.004642
-0.00466804
-0.00471202
-0.0047902
-0.00482747
-0.00484101
-0.00488925
-0.00494235
-0.00497589
-0.00501444
-0.00508445
-0.0051653
-0.00526536
-0.00538305
-0.00548822
-0.0055424
-0.00557095
-0.00559735
-0.00562658
-0.00564206
-0.0056994
-0.00581965
-0.00592118
-0.00596481
-0.00603343
-0.00613037
-0.00620195
-0.00625641
-0.00632587
-0.00639742
-0.00642418
-0.00646749
-0.00653658
-0.00669321
-0.00688459
-0.00701405
-0.00704417
-0.00708309
-0.00714605
-0.007194
-0.00728552
-0.00742334
-0.00754786
-0.00762332
-0.00772096
-0.00784552
-0.00794378
-0.00806699
-0.00818578
-0.00831924
-0.00841398
-0.00851326
-0.00862247
-0.00873026
-0.00884871
-0.00894198
-0.00903716
-0.00911266
-0.00924967
-0.00932295
-0.00949333
-0.00958303
-0.00965929
-0.00998342
-0.0100268
0.0116375
0.00746003
0.00179646
-0.00286173
-0.00536111
-0.0057741
-0.00524905
-0.00449995
-0.00376414
-0.00318287
-0.00277431
-0.00255845
-0.00259632
-0.00275609
-0.00282038
-0.00279734
-0.00282022
-0.00292055
-0.00304078
-0.0031391
-0.00323537
-0.00337856
-0.00358826
-0.00382626
-0.00405155
-0.00422817
-0.00430627
-0.00428492
-0.00424861
-0.0042715
-0.00435605
-0.00441934
-0.00441607
-0.00443536
-0.00454231
-0.00463841
-0.00466543
-0.00471
-0.00478809
-0.00482549
-0.00483954
-0.00488816
-0.00494134
-0.00497481
-0.00501335
-0.0050835
-0.00516452
-0.00526464
-0.00538235
-0.00548772
-0.00554211
-0.0055706
-0.00559676
-0.00562592
-0.00564152
-0.0056989
-0.00581912
-0.0059207
-0.00596444
-0.0060331
-0.00613003
-0.00620163
-0.00625611
-0.00632556
-0.0063971
-0.00642385
-0.00646714
-0.00653614
-0.0066928
-0.00688438
-0.00701392
-0.0070439
-0.00708276
-0.00714579
-0.00719369
-0.0072852
-0.00742309
-0.00754766
-0.00762309
-0.00772072
-0.00784532
-0.00794359
-0.00806681
-0.00818562
-0.0083191
-0.00841386
-0.00851312
-0.00862235
-0.00873013
-0.0088486
-0.00894187
-0.00903706
-0.00911252
-0.00924956
-0.00932282
-0.00949317
-0.009583
-0.009659
-0.00998295
-0.0100271
0.010996
0.0071761
0.00194572
-0.00243188
-0.00500156
-0.00562547
-0.00520454
-0.00447034
-0.0037329
-0.00315613
-0.0027571
-0.00255013
-0.00258896
-0.00274297
-0.00280381
-0.00278357
-0.00281149
-0.00291488
-0.00303555
-0.00313327
-0.00322912
-0.00337264
-0.00358346
-0.00382229
-0.0040463
-0.00421996
-0.00429686
-0.0042774
-0.0042432
-0.00426555
-0.00434854
-0.00441274
-0.00441231
-0.00443266
-0.00453839
-0.0046341
-0.00466231
-0.00470753
-0.00478537
-0.00482291
-0.00483768
-0.00488687
-0.00494023
-0.00497364
-0.00501208
-0.00508229
-0.00516345
-0.00526358
-0.00538131
-0.00548698
-0.00554178
-0.0055703
-0.00559614
-0.00562518
-0.00564093
-0.00569835
-0.00581843
-0.00592006
-0.00596401
-0.00603273
-0.00612963
-0.00620129
-0.00625585
-0.00632527
-0.00639676
-0.0064235
-0.00646676
-0.00653562
-0.0066923
-0.00688413
-0.00701377
-0.00704362
-0.00708242
-0.0071455
-0.00719335
-0.00728483
-0.0074228
-0.00754741
-0.00762281
-0.00772042
-0.00784507
-0.00794336
-0.00806659
-0.00818541
-0.00831893
-0.00841371
-0.00851296
-0.00862221
-0.00872998
-0.00884848
-0.00894175
-0.00903696