/*--------------------------------*- C++ -*----------------------------------*\
| =========                 |                                                 |
| \\      /  F ield         | OpenFOAM: The Open Source CFD Toolbox           |
|  \\    /   O peration     | Version:  2506                                  |
|   \\  /    A nd           | Website:  www.openfoam.com                      |
|    \\/     M anipulation  |                                                 |
\*---------------------------------------------------------------------------*/
FoamFile
{
    version     2.0;
    format      ascii;
    arch        "LSB;label=32;scalar=64";
    class       surfaceScalarField;
    location    "8.45";
    object      phi;
}
// * * * * * * * * * * * * * * * * * * * * * * * * * * * * * * * * * * * * * //

dimensions      [0 3 -1 0 0 0 0];

oriented        oriented;

internalField   nonuniform List<scalar> 
19000
(
1.14469e-06
-7.54399e-07
1.16735e-06
1.09628e-06
1.1365e-06
3.09702e-07
1.17369e-06
-4.81188e-07
1.20827e-06
-1.74087e-06
1.23253e-06
-4.08209e-07
1.232e-06
7.62873e-07
1.21086e-06
4.19931e-07
1.21725e-06
1.59112e-06
1.16732e-06
-5.12324e-07
1.17745e-06
4.3012e-07
1.12037e-06
-1.12024e-06
1.13562e-06
-6.86547e-07
1.09195e-06
-1.1745e-06
1.12276e-06
-1.0399e-06
1.1254e-06
-7.9201e-07
1.15038e-06
-8.99613e-07
1.16285e-06
-4.27766e-07
1.17502e-06
-3.1148e-07
-2.42435e-08
1.15386e-06
1.20442e-06
-7.34562e-07
1.2292e-06
1.0715e-06
1.19232e-06
3.46582e-07
1.22069e-06
-5.09561e-07
1.25856e-06
-1.77873e-06
1.28955e-06
-4.39206e-07
1.29009e-06
7.62334e-07
1.27088e-06
4.39144e-07
1.27202e-06
1.58998e-06
1.23307e-06
-4.73372e-07
1.23227e-06
4.30918e-07
1.19653e-06
-1.08451e-06
1.19524e-06
-6.8525e-07
1.17124e-06
-1.1505e-06
1.17793e-06
-1.04659e-06
1.19542e-06
-8.09504e-07
1.19988e-06
-9.04069e-07
1.23398e-06
-4.61864e-07
1.21671e-06
-2.94216e-07
-4.27973e-08
1.23527e-06
1.2678e-06
-7.19575e-07
1.29402e-06
1.04528e-06
1.25191e-06
3.88699e-07
1.26736e-06
-5.25016e-07
1.30711e-06
-1.81848e-06
1.34549e-06
-4.77591e-07
1.35168e-06
7.56149e-07
1.33257e-06
4.58254e-07
1.33397e-06
1.58858e-06
1.30237e-06
-4.41771e-07
1.29996e-06
4.33327e-07
1.27303e-06
-1.05758e-06
1.26417e-06
-6.7639e-07
1.25132e-06
-1.13765e-06
1.24109e-06
-1.03636e-06
1.2598e-06
-8.28217e-07
1.25723e-06
-9.01499e-07
1.28154e-06
-4.86173e-07
1.27813e-06
-2.90805e-07
-4.20464e-08
1.27738e-06
1.33373e-06
-7.092e-07
1.35712e-06
1.02188e-06
1.31496e-06
4.30864e-07
1.31768e-06
-5.27739e-07
1.35529e-06
-1.85609e-06
1.40072e-06
-5.23022e-07
1.41557e-06
7.41295e-07
1.39838e-06
4.75444e-07
1.40031e-06
1.58665e-06
1.37352e-06
-4.14978e-07
1.3699e-06
4.36939e-07
1.34455e-06
-1.03223e-06
1.3324e-06
-6.64242e-07
1.31908e-06
-1.12432e-06
1.30487e-06
-1.02215e-06
1.31796e-06
-8.41303e-07
1.31631e-06
-8.99848e-07
1.33348e-06
-5.03346e-07
1.33957e-06
-2.96894e-07
-4.11601e-08
1.33868e-06
1.40132e-06
-7.02165e-07
1.4185e-06
1.0047e-06
1.38266e-06
4.66702e-07
1.37533e-06
-5.20404e-07
1.4062e-06
-1.88696e-06
1.45678e-06
-5.73598e-07
1.48114e-06
7.16933e-07
1.4678e-06
4.88787e-07
1.47116e-06
1.58329e-06
1.44568e-06
-3.89493e-07
1.44277e-06
4.39846e-07
1.41651e-06
-1.00597e-06
1.40343e-06
-6.51159e-07
1.38807e-06
-1.10897e-06
1.37341e-06
-1.00749e-06
1.38006e-06
-8.47953e-07
1.3774e-06
-8.97188e-07
1.39133e-06
-5.17271e-07
1.4004e-06
-3.05962e-07
-4.53426e-08
1.40458e-06
1.47037e-06
-6.96858e-07
1.48116e-06
9.9391e-07
1.45602e-06
4.91845e-07
1.44189e-06
-5.06273e-07
1.46221e-06
-1.90728e-06
1.51527e-06
-6.26657e-07
1.54791e-06
6.84292e-07
1.53993e-06
4.96762e-07
1.54484e-06
1.57838e-06
1.51922e-06
-3.63868e-07
1.51748e-06
4.41587e-07
1.48888e-06
-9.77377e-07
1.47534e-06
-6.37613e-07
1.45729e-06
-1.09092e-06
1.44321e-06
-9.9342e-07
1.4455e-06
-8.50236e-07
1.44152e-06
-8.93214e-07
1.45215e-06
-5.27902e-07
1.4623e-06
-3.16105e-07
-5.28325e-08
1.46979e-06
1.54122e-06
-6.91862e-07
1.54842e-06
9.86715e-07
1.53501e-06
5.05254e-07
1.51664e-06
-4.879e-07
1.52412e-06
-1.91477e-06
1.57637e-06
-6.78899e-07
1.6147e-06
6.4596e-07
1.61289e-06
4.98567e-07
1.62009e-06
1.57118e-06
1.59399e-06
-3.3777e-07
1.59473e-06
4.40846e-07
1.56389e-06
-9.46529e-07
1.55057e-06
-6.24294e-07
1.52957e-06
-1.06992e-06
1.51581e-06
-9.79663e-07
1.51467e-06
-8.49088e-07
1.51012e-06
-8.88674e-07
1.51689e-06
-5.34669e-07
1.52696e-06
-3.26173e-07
-6.18502e-08
1.53598e-06
1.61448e-06
-6.86216e-07
1.62184e-06
9.79356e-07
1.61863e-06
5.08462e-07
1.59766e-06
-4.66926e-07
1.59171e-06
-1.90883e-06
1.6394e-06
-7.26581e-07
1.67999e-06
6.05368e-07
1.6849e-06
4.93653e-07
1.69568e-06
1.56041e-06
1.6701e-06
-3.12197e-07
1.6744e-06
4.36547e-07
1.64147e-06
-9.136e-07
1.6292e-06
-6.12019e-07
1.60496e-06
-1.04568e-06
1.59139e-06
-9.6609e-07
1.58713e-06
-8.44825e-07
1.58286e-06
-8.84406e-07
1.58655e-06
-5.38362e-07
1.59626e-06
-3.35878e-07
-7.16623e-08
1.60607e-06
1.69082e-06
-6.79458e-07
1.70112e-06
9.69053e-07
1.70546e-06
5.0412e-07
1.68307e-06
-4.44533e-07
1.66452e-06
-1.89028e-06
1.70417e-06
-7.66233e-07
1.74354e-06
5.66001e-07
1.7556e-06
4.81595e-07
1.77162e-06
1.54438e-06
1.74796e-06
-2.88536e-07
1.75664e-06
4.27871e-07
1.72208e-06
-8.79043e-07
1.7118e-06
-6.0174e-07
1.68438e-06
-1.01827e-06
1.67085e-06
-9.52559e-07
1.66303e-06
-8.37004e-07
1.65905e-06
-8.80423e-07
1.66109e-06
-5.40404e-07
1.67102e-06
-3.45805e-07
-8.28211e-08
1.68218e-06
1.7708e-06
-6.71537e-07
1.7851e-06
9.54755e-07
1.79432e-06
4.94904e-07
1.77162e-06
-4.21843e-07
1.7424e-06
-1.86106e-06
1.77181e-06
-7.95642e-07
1.80736e-06
5.30453e-07
1.82657e-06
4.62386e-07
1.84915e-06
1.52181e-06
1.8283e-06
-2.67688e-07
1.84142e-06
4.14752e-07
1.80562e-06
-8.43245e-07
1.79818e-06
-5.943e-07
1.76805e-06
-9.88137e-07
1.75478e-06
-9.39284e-07
1.74276e-06
-8.24992e-07
1.73821e-06
-8.75872e-07
1.73973e-06
-5.41926e-07
1.75054e-06
-3.5661e-07
-9.67704e-08
1.76449e-06
1.85486e-06
-6.62648e-07
1.87285e-06
9.36766e-07
1.88478e-06
4.82976e-07
1.86283e-06
-3.99898e-07
1.82553e-06
-1.82376e-06
1.84442e-06
-8.14533e-07
1.87514e-06
4.99735e-07
1.90059e-06
4.36934e-07
1.93002e-06
1.49238e-06
1.91179e-06
-2.49456e-07
1.92872e-06
3.97819e-07
1.89203e-06
-8.06551e-07
1.88788e-06
-5.90154e-07
1.8558e-06
-9.56062e-07
1.8433e-06
-9.2678e-07
1.82691e-06
-8.08598e-07
1.82039e-06
-8.69358e-07
1.82168e-06
-5.43213e-07
1.83305e-06
-3.67978e-07
-1.14733e-07
1.85101e-06
1.94325e-06
-6.5306e-07
1.96398e-06
9.1604e-07
1.97715e-06
4.69803e-07
1.95674e-06
-3.79486e-07
1.91411e-06
-1.78113e-06
1.9241e-06
-8.24522e-07
1.95056e-06
4.7328e-07
1.98021e-06
4.0728e-07
2.01556e-06
1.45702e-06
1.99877e-06
-2.32662e-07
2.0185e-06
3.78087e-07
1.98126e-06
-7.69309e-07
1.98033e-06
-5.89229e-07
1.9472e-06
-9.22924e-07
1.93598e-06
-9.15566e-07
1.9159e-06
-7.88515e-07
1.90617e-06
-8.59628e-07
1.9067e-06
-5.43743e-07
1.91695e-06
-3.78224e-07
-1.36461e-07
1.93867e-06
2.03612e-06
-6.42986e-07
2.05846e-06
8.9369e-07
2.0721e-06
4.56167e-07
2.05375e-06
-3.61133e-07
2.00816e-06
-1.73554e-06
2.01189e-06
-8.28251e-07
2.03551e-06
4.49655e-07
2.0666e-06
3.76188e-07
2.10613e-06
1.4175e-06
2.08933e-06
-2.15864e-07
2.11093e-06
3.56483e-07
2.07357e-06
-7.31951e-07
2.07536e-06
-5.91017e-07
2.04196e-06
-8.89523e-07
2.03221e-06
-9.05811e-07
2.00985e-06
-7.66155e-07
1.99635e-06
-8.46134e-07
1.99537e-06
-5.42761e-07
2.00198e-06
-3.84834e-07
-1.59879e-07
2.0254e-06
2.13353e-06
-6.32518e-07
2.15649e-06
8.70737e-07
2.17032e-06
4.42329e-07
2.15442e-06
-3.4523e-07
2.10746e-06
-1.68858e-06
2.10734e-06
-8.28135e-07
2.1294e-06
4.276e-07
2.15932e-06
3.46269e-07
2.20123e-06
1.37559e-06
2.18355e-06
-1.98181e-07
2.20655e-06
3.33485e-07
2.16955e-06
-6.94956e-07
2.17338e-06
-5.94844e-07
2.14027e-06
-8.56412e-07
2.13168e-06
-8.97227e-07
2.10861e-06
-7.43078e-07
2.09155e-06
-8.29076e-07
2.08869e-06
-5.39901e-07
2.08958e-06
-3.85727e-07
-1.81917e-07
2.11162e-06
2.2356e-06
-6.21627e-07
2.2584e-06
8.47932e-07
2.27244e-06
4.28296e-07
2.25932e-06
-3.32112e-07
2.21173e-06
-1.64099e-06
2.20911e-06
-8.25518e-07
2.23003e-06
4.06679e-07
2.25712e-06
3.19186e-07
2.30034e-06
1.33237e-06
2.28179e-06
-1.79638e-07
2.30621e-06
3.09071e-07
2.26995e-06
-6.58696e-07
2.27521e-06
-6.0011e-07
2.24263e-06
-8.23832e-07
2.23461e-06
-8.89202e-07
2.21202e-06
-7.2049e-07
2.19194e-06
-8.09e-07
2.18751e-06
-5.35464e-07
2.18209e-06
-3.8031e-07
-1.99857e-07
2.20003e-06
2.34246e-06
-6.10217e-07
2.36477e-06
8.25631e-07
2.379e-06
4.14059e-07
2.36886e-06
-3.2197e-07
2.32078e-06
-1.59291e-06
2.31597e-06
-8.20715e-07
2.33546e-06
3.87189e-07
2.35921e-06
2.95438e-07
2.40349e-06
1.28809e-06
2.38471e-06
-1.60859e-07
2.41083e-06
2.82945e-07
2.37544e-06
-6.23305e-07
2.38171e-06
-6.06374e-07
2.34969e-06
-7.91815e-07
2.34148e-06
-8.80995e-07
2.3201e-06
-6.99103e-07
2.29741e-06
-7.86315e-07
2.29217e-06
-5.30222e-07
2.28143e-06
-3.69568e-07
-2.12256e-07
2.29383e-06
2.45437e-06
-5.9819e-07
2.47621e-06
8.03794e-07
2.49054e-06
3.99725e-07
2.48331e-06
-3.14741e-07
2.43457e-06
-1.54416e-06
2.42749e-06
-8.13636e-07
2.44508e-06
3.696e-07
2.46583e-06
2.74692e-07
2.51141e-06
1.24251e-06
2.49304e-06
-1.42487e-07
2.52113e-06
2.54853e-07
2.48651e-06
-5.88687e-07
2.49342e-06
-6.13278e-07
2.46197e-06
-7.60369e-07
2.45283e-06
-8.71853e-07
2.43306e-06
-6.79333e-07
2.40785e-06
-7.61105e-07
2.40255e-06
-5.24924e-07
2.3883e-06
-3.5532e-07
-2.19038e-07
2.39509e-06
2.5716e-06
-5.85496e-07
2.59327e-06
7.8212e-07
2.60748e-06
3.85521e-07
2.60285e-06
-3.10117e-07
2.55325e-06
-1.49456e-06
2.54396e-06
-8.04349e-07
2.55949e-06
3.5407e-07
2.57789e-06
2.56297e-07
2.6251e-06
1.1953e-06
2.60742e-06
-1.24809e-07
2.6375e-06
2.24771e-07
2.60346e-06
-5.54646e-07
2.61061e-06
-6.20424e-07
2.57987e-06
-7.29634e-07
2.56907e-06
-8.61048e-07
2.55125e-06
-6.61516e-07
2.52344e-06
-7.33298e-07
2.5184e-06
-5.1988e-07
2.50265e-06
-3.39568e-07
-2.20849e-07
2.50446e-06
2.69446e-06
-5.72124e-07
2.71636e-06
7.60217e-07
2.73016e-06
3.71725e-07
2.72769e-06
-3.0765e-07
2.67707e-06
-1.44394e-06
2.66594e-06
-7.93212e-07
2.67968e-06
3.40329e-07
2.69633e-06
2.39643e-07
2.74534e-06
1.14629e-06
2.72827e-06
-1.07739e-07
2.76012e-06
1.92922e-07
2.72651e-06
-5.2104e-07
2.7334e-06
-6.27308e-07
2.70368e-06
-6.99911e-07
2.69051e-06
-8.47886e-07
2.67497e-06
-6.45976e-07
2.64463e-06
-7.02956e-07
2.63959e-06
-5.14836e-07
2.62413e-06
-3.24112e-07
-2.18491e-07
2.62177e-06
2.82324e-06
-5.58095e-07
2.84574e-06
7.37712e-07
2.85886e-06
3.58612e-07
2.85808e-06
-3.06869e-07
2.80637e-06
-1.39224e-06
2.79389e-06
-7.80728e-07
2.8064e-06
3.27822e-07
2.82176e-06
2.2428e-07
2.87258e-06
1.09546e-06
2.85584e-06
-9.10017e-08
2.88906e-06
1.5971e-07
2.85589e-06
-4.87874e-07
2.86192e-06
-6.33336e-07
2.83363e-06
-6.71621e-07
2.8175e-06
-8.31757e-07
2.80443e-06
-6.32905e-07
2.772e-06
-6.70529e-07
2.76625e-06
-5.09083e-07
2.7525e-06
-3.10358e-07
-2.12771e-07
2.74678e-06
2.95823e-06
-5.43429e-07
2.98165e-06
7.14295e-07
2.99385e-06
3.46407e-07
2.99434e-06
-3.07351e-07
2.94154e-06
-1.33945e-06
2.92817e-06
-7.67359e-07
2.94008e-06
3.1591e-07
2.95444e-06
2.09923e-07
3.007e-06
1.0429e-06
2.99031e-06
-7.43149e-08
3.02438e-06
1.25642e-07
2.99182e-06
-4.55311e-07
2.99635e-06
-6.37871e-07
2.96996e-06
-6.45228e-07
2.95042e-06
-8.12221e-07
2.93976e-06
-6.22237e-07
2.9061e-06
-6.36876e-07
2.89873e-06
-5.01705e-07
2.88759e-06
-2.99218e-07
-2.04582e-07
2.8794e-06
3.09972e-06
-5.28141e-07
3.12429e-06
6.89722e-07
3.13543e-06
3.35268e-07
3.13683e-06
-3.08747e-07
3.083e-06
-1.28562e-06
3.06906e-06
-7.53423e-07
3.08098e-06
3.03996e-07
3.09448e-06
1.9642e-07
3.14865e-06
9.88732e-07
3.13183e-06
-5.74941e-08
3.16619e-06
9.12801e-08
3.13453e-06
-4.23656e-07
3.13695e-06
-6.40282e-07
3.11289e-06
-6.21177e-07
3.08976e-06
-7.89084e-07
3.0811e-06
-6.1358e-07
3.04733e-06
-6.03104e-07
3.03746e-06
-4.91842e-07
3.02932e-06
-2.91069e-07
-1.94974e-07
3.01971e-06
3.24801e-06
-5.12238e-07
3.2739e-06
6.63825e-07
3.28389e-06
3.2528e-07
3.28593e-06
-3.10784e-07
3.23121e-06
-1.2309e-06
3.21684e-06
-7.39052e-07
3.22925e-06
2.91587e-07
3.24193e-06
1.83734e-07
3.29754e-06
9.33121e-07
3.28055e-06
-4.04984e-08
3.31463e-06
5.71997e-08
3.28429e-06
-3.93322e-07
3.28399e-06
-6.39973e-07
3.26265e-06
-5.99837e-07
3.23601e-06
-7.62444e-07
3.22866e-06
-6.06237e-07
3.19592e-06
-5.70361e-07
3.18308e-06
-4.79002e-07
3.17764e-06
-2.85635e-07
-1.85135e-07
3.16781e-06
3.40341e-06
-4.95715e-07
3.43071e-06
6.36521e-07
3.43954e-06
3.16451e-07
3.44202e-06
-3.13266e-07
3.38662e-06
-1.1755e-06
3.37178e-06
-7.24203e-07
3.38505e-06
2.78313e-07
3.39688e-06
1.71902e-07
3.45372e-06
8.76281e-07
3.43667e-06
-2.34509e-08
3.4699e-06
2.39746e-08
3.44137e-06
-3.64798e-07
3.43782e-06
-6.3642e-07
3.41941e-06
-5.8143e-07
3.38967e-06
-7.32698e-07
3.38275e-06
-5.99316e-07
3.35203e-06
-5.39646e-07
3.33622e-06
-4.63188e-07
3.33272e-06
-2.8214e-07
-1.76108e-07
3.3237e-06
3.56626e-06
-4.78566e-07
3.59498e-06
6.07805e-07
3.60271e-06
3.08718e-07
3.60549e-06
-3.16048e-07
3.5497e-06
-1.1197e-06
3.53417e-06
-7.08679e-07
3.54856e-06
2.63922e-07
3.55948e-06
1.60988e-07
3.61728e-06
8.1848e-07
3.60046e-06
-6.63054e-09
3.63228e-06
-7.84551e-09
3.60606e-06
-3.38578e-07
3.59887e-06
-6.29227e-07
3.58339e-06
-5.65956e-07
3.55121e-06
-7.0052e-07
3.54373e-06
-5.91831e-07
3.51582e-06
-5.11739e-07
3.49738e-06
-4.44746e-07
3.49484e-06
-2.79599e-07
-1.68638e-07
3.48737e-06
3.73692e-06
-4.6078e-07
3.76698e-06
5.77747e-07
3.77374e-06
3.01951e-07
3.7767e-06
-3.19004e-07
3.72085e-06
-1.06385e-06
3.70435e-06
-6.92181e-07
3.72002e-06
2.48256e-07
3.72997e-06
1.51043e-07
3.78841e-06
7.60034e-07
3.77221e-06
9.56716e-09
3.80211e-06
-3.77456e-08
3.77864e-06
-3.15109e-07
3.76759e-06
-6.18167e-07
3.75478e-06
-5.53155e-07
3.72106e-06
-6.66797e-07
3.71206e-06
-5.82835e-07
3.68744e-06
-4.87117e-07
3.66701e-06
-4.24309e-07
3.66442e-06
-2.77016e-07
-1.63081e-07
3.65887e-06
3.91576e-06
-4.42355e-07
3.94703e-06
5.46477e-07
3.95301e-06
2.95974e-07
3.95601e-06
-3.22008e-07
3.90049e-06
-1.00833e-06
3.88269e-06
-6.7438e-07
3.89971e-06
2.31235e-07
3.90869e-06
1.42063e-07
3.96741e-06
7.01316e-07
3.95229e-06
2.46874e-08
3.9798e-06
-6.52626e-08
3.95942e-06
-2.94731e-07
3.94446e-06
-6.03206e-07
3.93385e-06
-5.42542e-07
3.89956e-06
-6.32502e-07
3.88828e-06
-5.71559e-07
3.86702e-06
-4.65855e-07
3.84548e-06
-4.02769e-07
3.84198e-06
-2.73523e-07
-1.59452e-07
3.83836e-06
4.1032e-06
-4.233e-07
4.1355e-06
5.14172e-07
4.1409e-06
2.90574e-07
4.14379e-06
-3.24895e-07
4.08899e-06
-9.5353e-07
4.06958e-06
-6.54972e-07
4.08798e-06
2.12839e-07
4.09607e-06
1.33972e-07
4.15463e-06
6.42755e-07
4.14105e-06
3.82616e-08
4.16578e-06
-8.9993e-08
4.14869e-06
-2.77636e-07
4.13e-06
-5.84518e-07
4.12092e-06
-5.33464e-07
4.087e-06
-5.98579e-07
4.07291e-06
-5.57473e-07
4.05476e-06
-4.47703e-07
4.03307e-06
-3.81076e-07
4.02806e-06
-2.68514e-07
-1.57452e-07
4.02606e-06
4.29965e-06
-4.03644e-07
4.33279e-06
4.81031e-07
4.33784e-06
2.85518e-07
4.3404e-06
-3.27446e-07
4.28673e-06
-8.99863e-07
4.2655e-06
-6.3374e-07
4.28522e-06
1.93114e-07
4.29257e-06
1.26622e-07
4.3505e-06
5.8483e-07
4.33891e-06
4.9853e-08
4.36052e-06
-1.11607e-07
4.34675e-06
-2.63863e-07
4.3247e-06
-5.62467e-07
4.31638e-06
-5.25151e-07
4.28369e-06
-5.6589e-07
4.26658e-06
-5.40356e-07
4.25093e-06
-4.32051e-07
4.23001e-06
-3.60157e-07
4.2232e-06
-2.61704e-07
-1.56563e-07
4.22231e-06
4.50557e-06
-3.83442e-07
4.53933e-06
4.4727e-07
4.54428e-06
2.80569e-07
4.54624e-06
-3.29402e-07
4.49408e-06
-8.47704e-07
4.47098e-06
-6.10638e-07
4.49185e-06
1.72237e-07
4.49869e-06
1.19788e-07
4.55546e-06
5.28057e-07
4.54623e-06
5.90853e-08
4.56449e-06
-1.29872e-07
4.5539e-06
-2.53274e-07
4.52904e-06
-5.37601e-07
4.52071e-06
-5.16819e-07
4.48992e-06
-5.35106e-07
4.46985e-06
-5.2028e-07
4.4559e-06
-4.18105e-07
4.43647e-06
-3.40728e-07
4.42798e-06
-2.53215e-07
-1.56134e-07
4.42755e-06
4.72144e-06
-3.62772e-07
4.75561e-06
4.1311e-07
4.76067e-06
2.75502e-07
4.76175e-06
-3.30476e-07
4.71144e-06
-7.97395e-07
4.68654e-06
-5.85735e-07
4.70831e-06
1.50465e-07
4.7149e-06
1.13196e-07
4.77001e-06
4.72943e-07
4.7634e-06
6.56969e-08
4.77821e-06
-1.44685e-07
4.77051e-06
-2.45568e-07
4.74359e-06
-5.10678e-07
4.73441e-06
-5.07643e-07
4.70596e-06
-5.0666e-07
4.68344e-06
-4.97758e-07
4.6702e-06
-4.04865e-07
4.65272e-06
-3.23244e-07
4.64298e-06
-2.43483e-07
-1.55474e-07
4.64233e-06
4.94776e-06
-3.4173e-07
4.9821e-06
3.78769e-07
4.98748e-06
2.70116e-07
4.9874e-06
-3.3039e-07
4.93922e-06
-7.49222e-07
4.91268e-06
-5.59197e-07
4.93503e-06
1.28119e-07
4.94169e-06
1.06539e-07
4.99465e-06
4.19976e-07
4.99084e-06
6.95148e-08
5.00221e-06
-1.56054e-07
4.99698e-06
-2.40345e-07
4.96882e-06
-4.82509e-07
4.95804e-06
-4.96873e-07
4.93222e-06
-4.80832e-07
4.90798e-06
-4.73517e-07
4.89456e-06
-3.91451e-07
4.87913e-06
-3.07809e-07
4.86869e-06
-2.3305e-07
-1.54098e-07
4.86732e-06
5.18501e-06
-3.20428e-07
5.21931e-06
3.44475e-07
5.22518e-06
2.64244e-07
5.22369e-06
-3.28896e-07
5.17788e-06
-7.03411e-07
5.14994e-06
-5.31264e-07
5.17249e-06
1.05575e-07
5.17952e-06
9.95011e-08
5.22995e-06
3.69552e-07
5.22894e-06
7.05223e-08
5.23703e-06
-1.64147e-07
5.23381e-06
-2.37119e-07
5.20517e-06
-4.5387e-07
5.19232e-06
-4.84019e-07
5.1691e-06
-4.57619e-07
5.14394e-06
-4.4836e-07
5.12974e-06
-3.7725e-07
5.11612e-06
-2.94181e-07
5.10561e-06
-2.22541e-07
-1.51734e-07
5.10324e-06
5.43375e-06
-2.98986e-07
5.46776e-06
3.10458e-07
5.47424e-06
2.57769e-07
5.47116e-06
-3.25822e-07
5.42787e-06
-6.60121e-07
5.39884e-06
-5.0223e-07
5.42121e-06
8.3202e-08
5.4289e-06
9.18108e-08
5.47646e-06
3.22e-07
5.47817e-06
6.8812e-08
5.48327e-06
-1.69254e-07
5.4815e-06
-2.35348e-07
5.45313e-06
-4.25497e-07
5.43797e-06
-4.68859e-07
5.41704e-06
-4.36688e-07
5.39178e-06
-4.23099e-07
5.3765e-06
-3.61974e-07
5.36419e-06
-2.81871e-07
5.35413e-06
-2.12479e-07
-1.48389e-07
5.35078e-06
5.6945e-06
-2.77527e-07
5.728e-06
2.76954e-07
5.73513e-06
2.50646e-07
5.73041e-06
-3.21101e-07
5.68974e-06
-6.19455e-07
5.65995e-06
-4.72437e-07
5.68178e-06
6.13647e-08
5.69034e-06
8.32505e-08
5.73479e-06
2.77557e-07
5.739e-06
6.45986e-08
5.74151e-06
-1.71765e-07
5.74065e-06
-2.34484e-07
5.71318e-06
-3.98034e-07
5.69571e-06
-4.51388e-07
5.67659e-06
-4.1756e-07
5.6519e-06
-3.98415e-07
5.63553e-06
-3.45602e-07
5.624e-06
-2.70345e-07
5.61469e-06
-2.03166e-07
-1.4425e-07
5.61055e-06
5.96785e-06
-2.56182e-07
6.0006e-06
2.44202e-07
6.00835e-06
2.429e-07
6.00204e-06
-3.14791e-07
5.96402e-06
-5.8144e-07
5.93386e-06
-4.42274e-07
5.95481e-06
4.04128e-08
5.96438e-06
7.36812e-08
6.00558e-06
2.3636e-07
6.01198e-06
5.81958e-08
6.01233e-06
-1.7212e-07
6.01187e-06
-2.34024e-07
5.98583e-06
-3.71994e-07
5.96624e-06
-4.31798e-07
5.94835e-06
-3.99671e-07
5.92479e-06
-3.74846e-07
5.9075e-06
-3.28316e-07
5.89625e-06
-2.59096e-07
5.88772e-06
-1.94641e-07
-1.39691e-07
5.88317e-06
6.25439e-06
-2.35085e-07
6.28616e-06
2.12432e-07
6.29447e-06
2.34591e-07
6.28674e-06
-3.07064e-07
6.25128e-06
-5.45977e-07
6.22113e-06
-4.12122e-07
6.24089e-06
2.06534e-08
6.25157e-06
6.30006e-08
6.28948e-06
1.98451e-07
6.29767e-06
5.00022e-08
6.29634e-06
-1.70791e-07
6.29586e-06
-2.33542e-07
6.27156e-06
-3.47692e-07
6.25024e-06
-4.1048e-07
6.23302e-06
-3.82447e-07
6.21092e-06
-3.52746e-07
6.19301e-06
-3.10407e-07
6.18165e-06
-2.47737e-07
6.17382e-06
-1.8681e-07
-1.34995e-07
6.16912e-06
6.55476e-06
-2.1438e-07
6.58531e-06
1.81883e-07
6.59428e-06
2.25627e-07
6.58521e-06
-2.98001e-07
6.55217e-06
-5.12937e-07
6.52231e-06
-3.82262e-07
6.54061e-06
2.35726e-09
6.55247e-06
5.11407e-08
6.58717e-06
1.63755e-07
6.59672e-06
4.0446e-08
6.59413e-06
-1.68195e-07
6.59331e-06
-2.32722e-07
6.57087e-06
-3.25258e-07
6.54831e-06
-3.87918e-07
6.5313e-06
-3.65433e-07
6.51078e-06
-3.32233e-07
6.49269e-06
-2.92319e-07
6.48098e-06
-2.36025e-07
6.47355e-06
-1.79376e-07
-1.30465e-07
6.46902e-06
6.86964e-06
-1.94227e-07
6.89869e-06
1.52831e-07
6.90855e-06
2.15766e-07
6.89808e-06
-2.87528e-07
6.86738e-06
-4.82242e-07
6.83815e-06
-3.53034e-07
6.8546e-06
-1.40854e-08
6.86765e-06
3.80906e-08
6.89936e-06
1.32036e-07
6.90982e-06
2.99956e-08
6.90628e-06
-1.64659e-07
6.90489e-06
-2.31328e-07
6.88438e-06
-3.04754e-07
6.86102e-06
-3.64559e-07
6.84393e-06
-3.48336e-07
6.82497e-06
-3.13277e-07
6.80713e-06
-2.74482e-07
6.79502e-06
-2.23913e-07
6.78768e-06
-1.72033e-07
-1.26189e-07
6.7834e-06
7.19971e-06
-1.748e-07
7.22693e-06
1.25608e-07
7.23805e-06
2.04651e-07
7.22591e-06
-2.75387e-07
7.19756e-06
-4.53897e-07
7.16942e-06
-3.24888e-07
7.18356e-06
-2.82253e-08
7.19768e-06
2.39696e-08
7.22676e-06
1.02952e-07
7.23772e-06
1.90385e-08
7.23346e-06
-1.60404e-07
7.23129e-06
-2.2916e-07
7.21268e-06
-2.86143e-07
7.18897e-06
-3.40843e-07
7.17167e-06
-3.31034e-07
7.1541e-06
-2.95714e-07
7.1369e-06
-2.57276e-07
7.12452e-06
-2.11532e-07
7.11697e-06
-1.64492e-07
-1.22116e-07
7.1129e-06
7.54571e-06
-1.56281e-07
7.57073e-06
1.0059e-07
7.58352e-06
1.91861e-07
7.56935e-06
-2.61219e-07
7.54335e-06
-4.27898e-07
7.51682e-06
-2.98361e-07
7.52841e-06
-3.98165e-08
7.54319e-06
9.18957e-09
7.57002e-06
7.61272e-08
7.58117e-06
7.88975e-09
7.5764e-06
-1.5564e-07
7.57319e-06
-2.2595e-07
7.55637e-06
-2.69319e-07
7.53281e-06
-3.17287e-07
7.51516e-06
-3.13386e-07
7.49886e-06
-2.79408e-07
7.48258e-06
-2.40999e-07
7.47007e-06
-1.99025e-07
7.46228e-06
-1.56698e-07
-1.18018e-07
7.45818e-06
7.90838e-06
-1.38849e-07
7.9308e-06
7.81659e-08
7.94563e-06
1.77037e-07
7.92927e-06
-2.44857e-07
7.90542e-06
-4.04048e-07
7.88107e-06
-2.74017e-07
7.89002e-06
-4.87679e-08
7.9049e-06
-5.68848e-09
7.92974e-06
5.12869e-08
7.94091e-06
-3.27478e-09
7.93581e-06
-1.50546e-07
7.9313e-06
-2.21443e-07
7.91606e-06
-2.54071e-07
7.89308e-06
-2.94313e-07
7.87511e-06
-2.95411e-07
7.8599e-06
-2.64199e-07
7.84478e-06
-2.25878e-07
7.83231e-06
-1.8656e-07
7.82439e-06
-1.48772e-07
-1.13661e-07
7.82003e-06
8.2885e-06
-1.22667e-07
8.30798e-06
5.86828e-08
8.32497e-06
1.60047e-07
8.30667e-06
-2.26557e-07
8.28448e-06
-3.81855e-07
8.2628e-06
-2.52341e-07
8.26928e-06
-5.52453e-08
8.28348e-06
-1.98886e-08
8.30662e-06
2.81459e-08
8.31762e-06
-1.42669e-08
8.31222e-06
-1.45155e-07
8.30638e-06
-2.15602e-07
8.2923e-06
-2.39987e-07
8.2704e-06
-2.72416e-07
8.2522e-06
-2.77207e-07
8.23787e-06
-2.49871e-07
8.22407e-06
-2.12079e-07
8.21194e-06
-1.74424e-07
8.20397e-06
-1.40803e-07
-1.09065e-07
8.19937e-06
8.68684e-06
-1.07844e-07
8.70311e-06
4.24082e-08
8.72203e-06
1.4113e-07
8.70261e-06
-2.07133e-07
8.68123e-06
-3.60477e-07
8.66247e-06
-2.33585e-07
8.66696e-06
-5.97295e-08
8.67986e-06
-3.2792e-08
8.70119e-06
6.81126e-09
8.71179e-06
-2.48606e-08
8.70618e-06
-1.39549e-07
8.69896e-06
-2.08383e-07
8.68588e-06
-2.269e-07
8.66544e-06
-2.51974e-07
8.64726e-06
-2.59036e-07
8.63354e-06
-2.36142e-07
8.62114e-06
-1.99679e-07
8.60972e-06
-1.63004e-07
8.60166e-06
-1.32752e-07
-1.0441e-07
8.59701e-06
9.1042e-06
-9.44248e-08
9.11731e-06
2.93012e-08
9.13738e-06
1.21062e-07
9.1183e-06
-1.8806e-07
9.09638e-06
-3.38557e-07
9.08064e-06
-2.17846e-07
9.0838e-06
-6.28845e-08
9.0949e-06
-4.38899e-08
9.11384e-06
-1.21293e-08
9.12387e-06
-3.48958e-08
9.11806e-06
-1.33739e-07
9.10977e-06
-2.00093e-07
9.09782e-06
-2.14952e-07
9.07908e-06
-2.3323e-07
9.06125e-06
-2.41209e-07
9.04785e-06
-2.2274e-07
9.03675e-06
-1.88577e-07
9.02643e-06
-1.52687e-07
9.01835e-06
-1.24675e-07
-9.97357e-08
9.01368e-06
9.54142e-06
-8.23875e-08
9.55175e-06
1.89753e-08
9.57186e-06
1.0095e-07
9.55469e-06
-1.70894e-07
9.53134e-06
-3.152e-07
9.51788e-06
-2.04391e-07
9.52043e-06
-6.5437e-08
9.52928e-06
-5.27395e-08
9.54539e-06
-2.8238e-08
9.55469e-06
-4.419e-08
9.54893e-06
-1.27984e-07
9.54022e-06
-1.91377e-07
9.5294e-06
-2.04137e-07
9.51244e-06
-2.16268e-07
9.49525e-06
-2.24015e-07
9.482e-06
-2.09491e-07
9.47188e-06
-1.78458e-07
9.46289e-06
-1.43698e-07
9.45499e-06
-1.1678e-07
-9.49826e-08
9.45024e-06
9.99939e-06
-7.16458e-08
1.00076e-05
1.0805e-08
1.00266e-05
8.1949e-08
1.00123e-05
-1.56618e-07
9.98765e-06
-2.90563e-07
9.97504e-06
-1.91779e-07
9.97722e-06
-6.76198e-08
9.98409e-06
-5.96067e-08
9.9975e-06
-4.16498e-08
1.00059e-05
-5.25465e-08
1.00007e-05
-1.22792e-07
9.99193e-06
-1.82639e-07
9.98198e-06
-1.94191e-07
9.96668e-06
-2.00968e-07
9.95029e-06
-2.07625e-07
9.93717e-06
-1.96372e-07
9.92773e-06
-1.69009e-07
9.9199e-06
-1.35873e-07
9.91261e-06
-1.09494e-07
-9.00328e-08
9.90766e-06
1.04791e-05
-6.20655e-08
1.04858e-05
4.09971e-09
1.05027e-05
6.49645e-08
1.04915e-05
-1.45398e-07
1.04666e-05
-2.65654e-07
1.04537e-05
-1.78847e-07
1.04556e-05
-6.95123e-08
1.04609e-05
-6.49123e-08
1.04717e-05
-5.24921e-08
1.04792e-05
-6.00422e-08
1.04749e-05
-1.18486e-07
1.0466e-05
-1.73745e-07
1.04567e-05
-1.8489e-07
1.0443e-05
-1.87199e-07
1.04275e-05
-1.92126e-07
1.04145e-05
-1.83463e-07
1.04054e-05
-1.59905e-07
1.03985e-05
-1.28964e-07
1.03922e-05
-1.03171e-07
-8.48962e-08
1.03871e-05
1.09814e-05
-5.34846e-08
1.09873e-05
-1.72958e-09
1.10018e-05
5.03855e-08
1.09931e-05
-1.36608e-07
1.09693e-05
-2.41878e-07
1.09556e-05
-1.65204e-07
1.0957e-05
-7.0925e-08
1.09612e-05
-6.91011e-08
1.09698e-05
-6.10408e-08
1.09763e-05
-6.65314e-08
1.09725e-05
-1.14684e-07
1.09636e-05
-1.6484e-07
1.09547e-05
-1.75972e-07
1.09423e-05
-1.74864e-07
1.09278e-05
-1.77584e-07
1.09152e-05
-1.70906e-07
1.09062e-05
-1.50904e-07
1.09e-05
-1.22704e-07
1.08946e-05
-9.78392e-08
-7.99191e-08
1.08896e-05
1.15076e-05
-4.57514e-08
1.15129e-05
-7.04733e-09
1.15252e-05
3.81218e-08
1.15179e-05
-1.29302e-07
1.14965e-05
-2.20461e-07
1.14823e-05
-1.51064e-07
1.14826e-05
-7.11544e-08
1.1486e-05
-7.25528e-08
1.14929e-05
-6.79594e-08
1.14981e-05
-7.16994e-08
1.14943e-05
-1.10906e-07
1.14855e-05
-1.55987e-07
1.14768e-05
-1.67256e-07
1.14658e-05
-1.63865e-07
1.14523e-05
-1.6416e-07
1.14402e-05
-1.58754e-07
1.14313e-05
-1.42027e-07
1.14253e-05
-1.16703e-07
1.14208e-05
-9.33566e-08
-7.55439e-08
1.14165e-05
1.20588e-05
-3.87244e-08
1.20638e-05
-1.20267e-08
1.2074e-05
2.7849e-08
1.20673e-05
-1.22524e-07
1.20489e-05
-2.02125e-07
1.2035e-05
-1.3716e-07
1.20334e-05
-6.95202e-08
1.20361e-05
-7.52423e-08
1.20419e-05
-7.38022e-08
1.20458e-05
-7.55299e-08
1.20418e-05
-1.0694e-07
1.20329e-05
-1.47062e-07
1.20242e-05
-1.58639e-07
1.20144e-05
-1.54016e-07
1.20023e-05
-1.52037e-07
1.19906e-05
-1.47085e-07
1.19819e-05
-1.33311e-07
1.1976e-05
-1.10836e-07
1.1972e-05
-8.93475e-08
-7.19474e-08
1.19684e-05
1.26361e-05
-3.22591e-08
1.26409e-05
-1.67688e-08
1.26495e-05
1.92021e-08
1.26426e-05
-1.15569e-07
1.26274e-05
-1.86927e-07
1.26147e-05
-1.24497e-07
1.2611e-05
-6.58003e-08
1.26124e-05
-7.66356e-08
1.26173e-05
-7.87485e-08
1.26203e-05
-7.8498e-08
1.26161e-05
-1.02756e-07
1.26069e-05
-1.37853e-07
1.25983e-05
-1.50061e-07
1.25893e-05
-1.45048e-07
1.25786e-05
-1.41309e-07
1.25677e-05
-1.36118e-07
1.25591e-05
-1.24759e-07
1.25534e-05
-1.0514e-07
1.25496e-05
-8.54967e-08
-6.9022e-08
1.25466e-05
1.32409e-05
-2.62239e-08
1.32455e-05
-2.14165e-08
1.32528e-05
1.1951e-08
1.32453e-05
-1.08073e-07
1.32328e-05
-1.7442e-07
1.32222e-05
-1.1386e-07
1.32165e-05
-6.01426e-08
1.32158e-05
-7.59419e-08
1.322e-05
-8.29429e-08
1.32227e-05
-8.12408e-08
1.32185e-05
-9.84906e-08
1.32091e-05
-1.28466e-07
1.32002e-05
-1.41194e-07
1.3192e-05
-1.36801e-07
1.31824e-05
-1.31772e-07
1.31724e-05
-1.26113e-07
1.31642e-05
-1.16487e-07
1.31586e-05
-9.95821e-08
1.31549e-05
-8.17816e-08
-6.64078e-08
1.31523e-05
1.38745e-05
-2.05447e-08
1.38792e-05
-2.6109e-08
1.38852e-05
5.95416e-09
1.3877e-05
-9.99445e-08
1.38665e-05
-1.63832e-07
1.38581e-05
-1.05452e-07
1.3851e-05
-5.31169e-08
1.38477e-05
-7.26459e-08
1.3851e-05
-8.61856e-08
1.38539e-05
-8.41608e-08
1.38501e-05
-9.46964e-08
1.38408e-05
-1.19152e-07
1.38315e-05
-1.3189e-07
1.38237e-05
-1.28976e-07
1.38151e-05
-1.23248e-07
1.38062e-05
-1.17191e-07
1.37984e-05
-1.08674e-07
1.37929e-05
-9.41097e-08
1.37895e-05
-7.83092e-08
-6.38254e-08
1.37869e-05
1.45384e-05
-1.52309e-08
1.45425e-05
-3.02536e-08
1.45476e-05
8.33413e-10
1.45394e-05
-9.17095e-08
1.45297e-05
-1.54145e-07
1.45231e-05
-9.88892e-08
1.45157e-05
-4.5697e-08
1.45102e-05
-6.71321e-08
1.45116e-05
-8.75599e-08
1.45148e-05
-8.73411e-08
1.45121e-05
-9.20915e-08
1.45031e-05
-1.10104e-07
1.44936e-05
-1.22382e-07
1.44856e-05
-1.21022e-07
1.44781e-05
-1.15713e-07
1.44701e-05
-1.092e-07
1.4463e-05
-1.01557e-07
1.44577e-05
-8.8802e-08
1.44544e-05
-7.50276e-08
-6.14022e-08
1.4452e-05
1.52339e-05
-1.02957e-08
1.52359e-05
-3.21947e-08
1.52424e-05
-5.67739e-09
1.52342e-05
-8.35174e-08
1.52234e-05
-1.43338e-07
1.52181e-05
-9.36076e-08
1.52118e-05
-3.9347e-08
1.5205e-05
-6.0336e-08
1.5204e-05
-8.65513e-08
1.52068e-05
-9.01498e-08
1.52056e-05
-9.0879e-08
1.51976e-05
-1.02149e-07
1.5188e-05
-1.12809e-07
1.51798e-05
-1.12799e-07
1.51728e-05
-1.08723e-07
1.51658e-05
-1.02137e-07
1.51593e-05
-9.51494e-08
1.51543e-05
-8.37657e-08
1.51512e-05
-7.1926e-08
-5.9137e-08
1.51489e-05
1.59633e-05
-6.26156e-09
1.59743e-05
-4.31998e-08
1.59795e-05
-1.0885e-08
1.59627e-05
-6.67368e-08
1.5948e-05
-1.28588e-07
1.59445e-05
-9.01712e-08
1.59409e-05
-3.57222e-08
1.59335e-05
-5.29524e-08
1.59303e-05
-8.33435e-08
1.59316e-05
-9.13965e-08
1.59315e-05
-9.07596e-08
1.59253e-05
-9.59804e-08
1.5916e-05
-1.03566e-07
1.59078e-05
-1.04518e-07
1.59009e-05
-1.01824e-07
1.58946e-05
-9.59134e-08
1.58889e-05
-8.94463e-08
1.58843e-05
-7.91433e-08
1.58814e-05
-6.90049e-08
-5.7153e-08
1.58794e-05
1.67266e-05
-2.22479e-09
1.67205e-05
-3.71523e-08
1.6726e-05
-1.63515e-08
1.67177e-05
-5.84307e-08
1.67058e-05
-1.16673e-07
1.67052e-05
-8.95955e-08
1.67048e-05
-3.52956e-08
1.66974e-05
-4.56323e-08
1.66923e-05
-7.82272e-08
1.66916e-05
-9.06266e-08
1.66917e-05
-9.08916e-08
1.66873e-05
-9.15709e-08
1.66793e-05
-9.55743e-08
1.66709e-05
-9.61596e-08
1.66641e-05
-9.50098e-08
1.66582e-05
-8.99934e-08
1.66532e-05
-8.44952e-08
1.6649e-05
-7.49329e-08
1.66462e-05
-6.62159e-08
-5.54697e-08
1.66446e-05
1.75273e-05
7.97605e-10
1.75278e-05
-3.7625e-08
1.75286e-05
-1.71354e-08
1.75164e-05
-4.62004e-08
1.75016e-05
-1.01923e-07
1.75013e-05
-8.93296e-08
1.75043e-05
-3.82281e-08
1.74982e-05
-3.956e-08
1.74914e-05
-7.14198e-08
1.74886e-05
-8.78679e-08
1.74881e-05
-9.03005e-08
1.74849e-05
-8.84533e-08
1.74788e-05
-8.93959e-08
1.74709e-05
-8.82853e-08
1.74642e-05
-8.83177e-08
1.74584e-05
-8.42408e-08
1.7454e-05
-8.00463e-08
1.74503e-05
-7.12812e-08
1.74477e-05
-6.35871e-08
-5.40205e-08
1.74463e-05
1.83659e-05
3.27973e-09
1.83604e-05
-3.21409e-08
1.83631e-05
-1.98564e-08
1.83544e-05
-3.75276e-08
1.83386e-05
-8.60971e-08
1.83359e-05
-8.65914e-08