/*--------------------------------*- C++ -*----------------------------------*\
| =========                 |                                                 |
| \\      /  F ield         | OpenFOAM: The Open Source CFD Toolbox           |
|  \\    /   O peration     | Version:  2506                                  |
|   \\  /    A nd           | Website:  www.openfoam.com                      |
|    \\/     M anipulation  |                                                 |
\*---------------------------------------------------------------------------*/
FoamFile
{
    version     2.0;
    format      ascii;
    arch        "LSB;label=32;scalar=64";
    class       volScalarField;
    location    "1.35";
    object      p;
}
// * * * * * * * * * * * * * * * * * * * * * * * * * * * * * * * * * * * * * //

dimensions      [0 2 -2 0 0 0 0];

internalField   nonuniform List<scalar> 
9600
(
-1.30571e-10
0.000439352
-0.0012565
-4.04985e-05
0.00112763
0.00137782
2.16797e-05
0.000516149
0.000428463
0.000732646
0.000744284
0.00220989
0.00180981
0.00268897
0.00316344
0.00423124
0.00508502
0.00699576
0.0102171
0.0143777
1.3867e-06
0.00042689
-0.00125251
-3.06725e-05
0.00111841
0.00136646
2.93674e-05
0.000515141
0.000433164
0.00073498
0.000741951
0.00220699
0.0018124
0.00268756
0.00316589
0.00421084
0.00515529
0.00695674
0.0102813
0.0139462
2.15846e-06
0.000414892
-0.00124503
-2.03712e-05
0.00110446
0.0013548
3.78331e-05
0.000512934
0.000441677
0.000736447
0.000741564
0.00220041
0.00181766
0.00268696
0.00316497
0.00419566
0.00519883
0.00690669
0.0102995
0.0133836
2.20057e-06
0.000404537
-0.00123492
-1.29965e-05
0.00108941
0.00134635
4.42639e-05
0.000509917
0.000453878
0.000737825
0.00074366
0.00218953
0.00182483
0.00268686
0.00316124
0.00417688
0.00523883
0.00685358
0.0102599
0.0129011
1.84448e-06
0.000396001
-0.00122143
-8.0525e-06
0.00107331
0.00134003
4.86098e-05
0.000506302
0.000469983
0.000738371
0.000746586
0.00217525
0.0018335
0.00268472
0.00315589
0.00415368
0.00527947
0.00679138
0.0101965
0.0124722
1.23089e-06
0.000389805
-0.00120426
-5.95082e-06
0.00105625
0.00133525
5.14013e-05
0.000502144
0.00048921
0.000737602
0.000749702
0.00215921
0.0018432
0.00267968
0.00315096
0.00412765
0.00531785
0.00672403
0.0101091
0.0120704
4.90519e-07
0.000385735
-0.00118396
-6.41723e-06
0.00103896
0.00133148
5.33644e-05
0.000497487
0.000510696
0.000735916
0.00075296
0.00214251
0.00185379
0.00267202
0.0031478
0.0040984
0.00535232
0.0066545
0.00999212
0.0116896
-2.36994e-07
0.000383244
-0.00116129
-8.48866e-06
0.00102182
0.00132819
5.53474e-05
0.000492317
0.000533886
0.00073367
0.000756387
0.0021256
0.00186519
0.0026619
0.00314663
0.0040636
0.00538137
0.00658371
0.00984345
0.0113273
-8.39196e-07
0.000381669
-0.00113686
-1.13011e-05
0.00100476
0.00132501
5.80111e-05
0.000486531
0.000558444
0.000730979
0.000759977
0.00210847
0.0018773
0.00264929
0.00314718
0.00402749
0.00540282
0.00651235
0.0096637
0.0109803
-1.23441e-06
0.000380443
-0.00111107
-1.43319e-05
0.000987581
0.00132172
6.1711e-05
0.000479981
0.000584156
0.000727821
0.00076368
0.00209096
0.00188997
0.00263418
0.00314899
0.00399213
0.00541422
0.00644091
0.00945505
0.0106456
-1.36958e-06
0.000379163
-0.00108419
-1.72939e-05
0.000970165
0.00131807
6.66036e-05
0.000472538
0.000610873
0.000724181
0.00076741
0.00207296
0.00190306
0.00261659
0.0031511
0.00395744
0.00541362
0.00636937
0.00921989
0.0103143
-1.21139e-06
0.000377578
-0.00105634
-2.00405e-05
0.000952446
0.00131384
7.27685e-05
0.000464107
0.000638474
0.000720076
0.000771051
0.00205445
0.00191634
0.00259682
0.00315237
0.00392349
0.0053995
0.00629721
0.00896081
0.00998307
-7.31999e-07
0.000375543
-0.00102761
-2.25134e-05
0.000934416
0.00130883
8.02571e-05
0.000454617
0.000666838
0.000715587
0.000774438
0.00203545
0.00192947
0.00257542
0.00315168
0.00389258
0.00537114
0.0062225
0.00868213
0.00964871
9.724e-08
0.00037298
-0.000998049
-2.47045e-05
0.000916105
0.00130289
8.91017e-05
0.000444027
0.000695806
0.000710859
0.000777358
0.0020161
0.00194196
0.0025529
0.003148
0.00386085
0.0053286
0.0061421
0.00838949
0.00930948
1.30716e-06
0.000369842
-0.000967715
-2.66293e-05
0.000897559
0.0012959
9.93182e-05
0.000432329
0.000725193
0.000706064
0.000779497
0.00199672
0.00195327
0.00252958
0.00314073
0.00382836
0.00527246
0.00605318
0.00808744
0.00896464
2.93125e-06
0.000366101
-0.000936666
-2.83108e-05
0.000878833
0.00128776
0.000110902
0.000419553
0.000754782
0.000701435
0.000780447
0.00197772
0.00196293
0.00250566
0.00312943
0.00379442
0.00520389
0.00595356
0.00777882
0.0086143
5.00421e-06
0.000361726
-0.000904961
-2.97671e-05
0.00085998
0.00127841
0.000123815
0.00040576
0.000784261
0.0006973
0.000779802
0.00195941
0.00197058
0.0024812
0.00311384
0.00375759
0.00512399
0.00584168
0.00746544
0.00825911
7.56197e-06
0.00035669
-0.000872666
-3.09992e-05
0.000841043
0.00126782
0.000137999
0.000391058
0.000813266
0.000694028
0.000777083
0.00194205
0.00197602
0.00245577
0.00309423
0.00371619
0.00503315
0.0057167
0.00714887
0.00789985
1.0641e-05
0.000350963
-0.000839853
-3.19902e-05
0.000822049
0.00125599
0.000153379
0.000375616
0.000841412
0.000692001
0.000771659
0.00192574
0.00197922
0.00242852
0.00307117
0.00366882
0.0049313
0.00558184
0.00682997
0.00753739
1.42743e-05
0.000344528
-0.000806608
-3.27078e-05
0.000803012
0.00124296
0.000169817
0.000359649
0.000868288
0.000691563
0.000763073
0.00191039
0.00198038
0.00239855
0.00304514
0.00361439
0.00481814
0.00543761
0.00650939
0.00717221
1.84935e-05
0.000337374
-0.000773033
-3.30942e-05
0.000783912
0.00122883
0.000187134
0.000343336
0.000893518
0.000693006
0.000750957
0.0018956
0.00198002
0.00236493
0.00301606
0.00355253
0.00469294
0.00528547
0.00618866
0.00680401
2.33289e-05
0.000329502
-0.000739261
-3.3062e-05
0.000764711
0.00121374
0.000205189
0.000326821
0.000916673
0.000696541
0.000735432
0.00188072
0.00197881
0.00232663
0.00298326
0.00348403
0.0045546
0.0051259
0.00587018
0.00643255
2.88027e-05
0.000320931
-0.000705449
-3.25008e-05
0.000745337
0.00119785
0.000223862
0.000310255
0.000937388
0.000702228
0.000717008
0.00186495
0.00197712
0.00228295
0.00294574
0.00341013
0.0044026
0.00495824
0.0055564
0.00605804
3.49293e-05
0.000311707
-0.000671779
-3.12839e-05
0.000725682
0.00118134
0.000243034
0.000293741
0.000955459
0.000709909
0.000697051
0.00184759
0.00197506
0.00223359
0.00290208
0.00333161
0.00423738
0.00478189
0.00524982
0.00568081
4.17127e-05
0.000301904
-0.000638477
-2.92587e-05
0.000705647
0.00116435
0.000262657
0.000277282
0.000970682
0.00071929
0.000677158
0.00182809
0.00197266
0.00217843
0.00285074
0.00324899
0.0040601
0.00459628
0.00495307
0.00530152
4.91438e-05
0.00029163
-0.00060582
-2.62394e-05
0.000685194
0.00114697
0.000282734
0.000260777
0.000983046
0.000730036
0.000656724
0.00180583
0.00196985
0.00211744
0.00279024
0.00316276
0.00387209
0.00440036
0.00466894
0.00492261
5.71975e-05
0.000281042
-0.000574126
-2.20723e-05
0.000664352
0.00112925
0.000303318
0.000244015
0.00099266
0.00074197
0.000636686
0.00178024
0.00196637
0.00205058
0.00271904
0.0030734
0.00367523
0.00419227
0.00439941
0.00454973
6.58202e-05
0.000270365
-0.000543715
-1.66762e-05
0.000643166
0.00111112
0.0003247
0.000226671
0.000999382
0.000755073
0.000615696
0.00175076
0.00196193
0.00197782
0.00263566
0.00298154
0.00347256
0.00396971
0.00414375
0.00419196
7.4934e-05
0.00025986
-0.000514906
-9.99762e-06
0.000621754
0.00109239
0.00034737
0.000208436
0.00100282
0.000769492
0.000592426
0.00171667
0.00195656
0.00189922
0.00253868
0.00288771
0.00326839
0.00373064
0.00389709
0.0038587
8.44327e-05
0.000249835
-0.000487996
-2.09974e-06
0.000600423
0.00107273
0.000371857
0.000189275
0.00100228
0.000785465
0.000563625
0.00167651
0.00195055
0.00181541
0.00242671
0.00279158
0.00306765
0.00347562
0.00365115
0.00355543
9.41775e-05
0.000240682
-0.000463241
6.79005e-06
0.000579627
0.00105169
0.000398644
0.0001695
0.000996715
0.000800512
0.000530597
0.00162821
0.00194353
0.00172781
0.00229883
0.00269179
0.00287449
0.00320894
0.003397
0.00327976
0.000103996
0.000232835
-0.000440798
1.62923e-05
0.000559932
0.00102863
0.000427952
0.000149761
0.000984759
0.000821228
0.000489704
0.00156975
0.00193451
0.00163884
0.0021552
0.00258592
0.00269105
0.00293646
0.0031293
0.00302282
0.000113677
0.000226717
-0.000420643
2.57948e-05
0.000542099
0.00100293
0.000459661
0.000131262
0.000964787
0.000843989
0.00043885
0.00149902
0.00192206
0.00155224
0.00199686
0.00247048
0.00251794
0.00266357
0.00284815
0.00277353
0.000123017
0.000222673
-0.000402634
3.44694e-05
0.000526983
0.000974357
0.000493472
0.000115581
0.000935306
0.000868013
0.00039291
0.00141421
0.00190376
0.00147227
0.00182581
0.00234151
0.00235518
0.00239488
0.0025561
0.00252277
0.000131804
0.000221
-0.000386397
4.12534e-05
0.000515143
0.000943168
0.000528615
0.000104402
0.000895579
0.000890852
0.000357941
0.00131482
0.00187643
0.00140237
0.0016454
0.00219536
0.00220216
0.00213482
0.00225514
0.00226537
0.000139826
0.000221948
-0.000371217
4.49257e-05
0.000506745
0.000910042
0.000567578
9.93113e-05
0.000845841
0.000908901
0.000329709
0.0012018
0.00183659
0.0013439
0.00146032
0.0020292
0.0020566
0.00188863
0.00194721
0.00199812
0.000146912
0.000225875
-0.00035613
4.43528e-05
0.000501507
0.00087595
0.000598149
0.000101034
0.00078716
0.000918752
0.000308125
0.0010781
0.00178105
0.0012958
0.00127596
0.00184146
0.00191376
0.00166164
0.00163653
0.00171768
0.000152895
0.000233395
-0.000339996
3.86127e-05
0.000498381
0.000842206
0.000622918
0.000109402
0.000721725
0.00091725
0.000293069
0.000948224
0.00170757
0.00125537
0.00109779
0.00163235
0.0017666
0.00145736
0.00133103
0.00142148
0.000157685
0.000242562
-0.000321652
2.7221e-05
0.000495887
0.000810154
0.000641325
0.000123482
0.000652328
0.000902134
0.000282924
0.000816879
0.00161523
0.00121874
0.000930665
0.00140443
0.00160714
0.00127546
0.00104106
0.00111057
0.000161294
0.000253493
-0.000299973
1.00504e-05
0.000492178
0.000780802
0.000652425
0.000141572
0.000581879
0.000872601
0.000275757
0.000687947
0.00150494
0.00118131
0.000777608
0.00116238
0.00142853
0.00111098
0.000776291
0.000791791
0.000163772
0.000265899
-0.000273982
-1.24469e-05
0.000485098
0.00075474
0.000655553
0.000161232
0.000513186
0.000829508
0.000268468
0.000563425
0.0013786
0.00113876
0.000639908
0.00091225
0.00122687
0.000955851
0.000543111
0.000477447
0.000165218
0.000279152
-0.000242843
-3.90088e-05
0.000472363
0.000731915
0.00065063
0.000179423
0.000448607
0.000775547
0.000257916
0.000443595
0.00123794
0.00108769
0.000518375
0.000660939
0.00100134
0.000800088
0.000341694
0.000182005
0.000165845
0.000292373
-0.000206072
-6.81409e-05
0.000451826
0.000711595
0.000638276
0.000192903
0.00038937
0.000714446
0.000242887
0.000328445
0.00108417
0.00102479
0.000413057
0.000415643
0.000753812
0.000634263
0.000166114
-8.31402e-05
0.000166008
0.000304658
-0.000163712
-0.000118431
0.000421801
0.000692567
0.000619541
0.00019864
0.000335272
0.000650031
0.000223191
0.000217659
0.000918805
0.000946892
0.000322261
0.000183375
0.000488737
0.000451974
7.42882e-06
-0.000313173
0.000166051
0.000315266
-0.000115815
-0.000142995
0.000381198
0.000672826
0.000596464
0.000194733
0.000284013
0.000584785
0.000199813
0.000111455
0.000743715
0.000851413
0.000242171
-2.98417e-05
0.000212545
0.000249828
-0.000143428
-0.000509665
0.000166457
0.000323434
-6.34161e-05
-0.000162702
0.000329412
0.000649606
0.000571707
0.000180639
0.000232184
0.000519624
0.000174707
1.05819e-05
0.000560907
0.000736253
0.000167549
-0.000219514
-6.64559e-05
2.62905e-05
-0.000294612
-0.000677797
0.000167826
0.000328426
-8.45248e-06
-0.000175473
0.000266794
0.000619758
0.000547641
0.000156801
0.000181684
0.000454563
0.000149162
-8.32728e-05
0.000373386
0.000599696
9.19321e-05
-0.000383988
-0.000338335
-0.000217131
-0.000453947
-0.000824572
0.000170689
0.000329806
4.64658e-05
-0.000179364
0.000194823
0.00057947
0.000525895
0.000129431
0.000119923
0.000385984
0.000122438
-0.000167618
0.000185426
0.000441879
8.18997e-06
-0.000526221
-0.000593705
-0.000474198
-0.000627867
-0.000959421
0.000175641
0.000327062
9.82222e-05
-0.00017302
0.000116817
0.000525001
0.000506246
0.000102705
5.05817e-05
0.000308764
9.28145e-05
-0.00024089
1.93678e-06
0.000266079
-8.95156e-05
-0.000651918
-0.00082722
-0.000735901
-0.000818426
-0.00109318
0.000183039
0.000320728
0.000143862
-0.000156247
3.74113e-05
0.000454191
0.000485491
8.04128e-05
-2.50135e-05
0.000219612
5.72161e-05
-0.000303448
-0.000171949
7.74153e-05
-0.000204273
-0.00076781
-0.00103809
-0.000994677
-0.00102252
-0.00123317
0.000192986
0.000311555
0.000180966
-0.000130474
-3.8287e-05
0.000366911
0.000457487
6.45989e-05
-0.000100482
0.000118461
1.00907e-05
-0.000357902
-0.000331424
-0.000118546
-0.000336223
-0.000879758
-0.00122735
-0.001246
-0.0012361
-0.00138085
0.000205286
0.00030062
0.000207805
-9.85927e-05
-0.000105831
0.00026458
0.000415481
5.44251e-05
-0.000169036
7.56306e-06
-5.38397e-05
-0.00040849
-0.000473683
-0.0003148
-0.000483303
-0.000992276
-0.00139621
-0.00148602
-0.00145735
-0.00153526
0.000219421
0.000289142
0.000223521
-6.46336e-05
-0.000161227
0.000151489
0.000354562
4.65097e-05
-0.00022584
-0.000108875
-0.000136121
-0.000462469
-0.000600572
-0.00050411
-0.000641652
-0.00110905
-0.00154679
-0.00170953
-0.0016847
-0.0016974
0.000234746
0.000278258
0.00022786
-3.30577e-05
-0.00020252
3.49471e-05
0.000272842
3.2976e-05
-0.000270624
-0.00022273
-0.000234091
-0.000526487
-0.000716066
-0.0006828
-0.000805159
-0.00123138
-0.00168325
-0.00191151
-0.0019134
-0.00187048
0.000250405
0.000268687
0.000221661
-7.93167e-06
-0.000228263
-7.72271e-05
0.000171129
5.37491e-06
-0.000305375
-0.000326972
-0.000343794
-0.000603343
-0.00082581
-0.000851868
-0.000968921
-0.00135739
-0.00180995
-0.00208977
-0.00213495
-0.00205583
0.000265252
0.000260726
0.000207201
6.46498e-06
-0.000244536
-0.000179179
5.32264e-05
-4.22691e-05
-0.000334842
-0.000418526
-0.000458298
-0.000692185
-0.000934358
-0.00101286
-0.00113245
-0.00148514
-0.00192934
-0.00224543
-0.00234042
-0.00224998
0.000278135
0.000254293
0.000187056
8.58164e-06
-0.00025544
-0.00026718
-7.20946e-05
-0.000111852
-0.000368568
-0.000498095
-0.000569991
-0.00079054
-0.00104421
-0.00116729
-0.00129572
-0.00161501
-0.00204284
-0.00238107
-0.00252304
-0.00244503
0.000288139
0.000248744
0.000163796
-1.69157e-06
-0.000266242
-0.000340973
-0.000195729
-0.000201019
-0.000415568
-0.000568954
-0.000673899
-0.000892899
-0.00115532
-0.0013164
-0.00145811
-0.00174794
-0.00215284
-0.00250041
-0.00267938
-0.00263009
0.000294618
0.000243007
0.000139161
-2.28222e-05
-0.000281314
-0.000402383
-0.000312798
-0.000305034
-0.000478636
-0.000638343
-0.000769926
-0.000993046
-0.0012658
-0.00146068
-0.00161908
-0.00188446
-0.0022619
-0.00260844
-0.00281041
-0.00279449
0.000297214
0.00023603
0.000113797
-5.22341e-05
-0.000303406
-0.000455572
-0.000420452
-0.0004174
-0.000557159
-0.000712893
-0.000860554
-0.00108801
-0.00137112
-0.00159786
-0.00177755
-0.00202446
-0.00237183
-0.00270963
-0.00292188
-0.00293276
0.00029575
0.000226752
8.78273e-05
-8.75868e-05
-0.000333543
-0.000505877
-0.000518205
-0.000530905
-0.000649468
-0.000795876
-0.000949684
-0.0011788
-0.00146846
-0.00172402
-0.00192968
-0.0021671
-0.0024839
-0.00280659
-0.00302076
-0.00304675
0.000290079
0.00021438
6.10141e-05
-0.000127098
-0.000371541
-0.000557431
-0.000607775
-0.000640261
-0.000750753
-0.000888561
-0.00104099
-0.00126635
-0.00155834
-0.00183645
-0.00207024
-0.00230889
-0.00259871
-0.00290066
-0.0031113
-0.00314277
0.000280172
0.000198207
3.26217e-05
-0.00016915
-0.000416548
-0.000612373
-0.000692354
-0.000744788
-0.000854356
-0.000988757
-0.00113769
-0.00135289
-0.00164155
-0.00193503
-0.00219407
-0.00244272
-0.00271482
-0.0029931
-0.00319547
-0.00322691
0.000265959
0.00017783
1.7249e-06
-0.000213003
-0.000467131
-0.000671927
-0.000775124
-0.000845526
-0.000956654
-0.00109238
-0.00124005
-0.00144205
-0.00171913
-0.00202068
-0.00229951
-0.00256136
-0.00282591
-0.00308286
-0.00327294
-0.00330145
0.000247292
0.000153089
-3.2651e-05
-0.000258885
-0.00052165
-0.000736571
-0.000858641
-0.000943358
-0.00105702
-0.00119496
-0.0013438
-0.00153518
-0.00179462
-0.00209462
-0.0023871
-0.00266031
-0.002924
-0.0031656
-0.00334137
-0.00336541
0.000223995
0.000124046
-7.13029e-05
-0.000307662
-0.000578683
-0.000805552
-0.000944947
-0.00104036
-0.00115609
-0.00129535
-0.00144551
-0.0016287
-0.00186971
-0.00215819
-0.00245623
-0.00273825
-0.00300305
-0.00323587
-0.00339834
-0.00341648
0.000195808
9.07979e-05
-0.000114164
-0.000360346
-0.00063838
-0.000877826
-0.00103475
-0.00113889
-0.00125442
-0.00139366
-0.00154438
-0.00171932
-0.00194243
-0.00221324
-0.00250628
-0.00279262
-0.00305817
-0.0032866
-0.00343979
-0.00345134
0.000162615
5.31913e-05
-0.000161063
-0.000417479
-0.000702058
-0.000953033
-0.00112779
-0.00124116
-0.00135401
-0.00148986
-0.00163954
-0.00180555
-0.00200936
-0.0022593
-0.00253778
-0.00282012
-0.00308423
-0.00330916
-0.00345747
-0.0034643
0.000124371
1.10534e-05
-0.000211713
-0.000478902
-0.000770976
-0.00103211
-0.0012233
-0.00134764
-0.00145833
-0.00158624
-0.00173018
-0.00188604
-0.00206823
-0.00229289
-0.00254927
-0.00281694
-0.00307391
-0.00329321
-0.00343832
-0.0034443
8.09386e-05
-3.56856e-05
-0.000265973
-0.000544467
-0.000845482
-0.00111658
-0.00132267
-0.00145812
-0.00156864
-0.00168718
-0.00181887
-0.00196038
-0.00211839
-0.00231101
-0.00253681
-0.00277798
-0.00301662
-0.00322373
-0.00336255
-0.00337036
3.27045e-05
-8.70207e-05
-0.000324148
-0.000614596
-0.000925556
-0.00120644
-0.00142741
-0.0015754
-0.00168701
-0.00179685
-0.00191246
-0.00203208
-0.00215987
-0.00231071
-0.00249261
-0.00269432
-0.00289894
-0.00308082
-0.00320338
-0.00320826
-2.02313e-05
-0.000142765
-0.000386915
-0.000689346
-0.00101163
-0.00130275
-0.00153742
-0.00170048
-0.00181787
-0.00192113
-0.00202211
-0.00211552
-0.00220244
-0.00229473
-0.00240776
-0.00254162
-0.00268942
-0.00283339
-0.00293473
-0.00293221
-7.48632e-05
-0.000203319
-0.000455976
-0.000769191
-0.00110274
-0.001406
-0.00165502
-0.00183375
-0.0019629
-0.00206465
-0.00215472
-0.00223144
-0.0022837
-0.00230659
-0.00230544
-0.00228681
-0.00226942
-0.00228136
-0.00233213
-0.00238507
-0.00012983
-0.000268964
-0.000531515
-0.000854842
-0.00119929
-0.00151541
-0.00178032
-0.00197757
-0.0021239
-0.00223246
-0.00231428
-0.00237967
-0.00242159
-0.00243737
-0.00241465
-0.00229566
-0.00199835
-0.00149619
-0.000919681
-0.000471408
-0.000190625
-0.000335835
-0.000608355
-0.000943993
-0.00130248
-0.00163321
-0.00191387
-0.00213068
-0.00229926
-0.00242869
-0.00251363
-0.00255216
-0.00251889
-0.00235729
-0.00199957
-0.00143983
-0.000809472
-0.000267635
7.35744e-05
0.000142954
-0.000257935
-0.000403239
-0.000682614
-0.00103274
-0.00141324
-0.00176916
-0.00206958
-0.0022929
-0.00245911
-0.00257928
-0.00263527
-0.00256271
-0.00228313
-0.0018309
-0.00133039
-0.000880017
-0.000511836
-0.000234351
-6.61775e-05
-5.3792e-05
-0.000326807
-0.000475483
-0.000755828
-0.00111048
-0.00150737
-0.00190745
-0.00227199
-0.0025592
-0.00273122
-0.00271402
-0.00248021
-0.00211277
-0.00169949
-0.00129469
-0.000912207
-0.000556228
-0.000232743
3.11372e-05
0.000182719
0.000154203
-0.000391698
-0.000553514
-0.000849418
-0.0012115
-0.00159491
-0.00194114
-0.00221173
-0.00237788
-0.00246178
-0.00247921
-0.00245171
-0.00240246
-0.0022938
-0.0020572
-0.00163175
-0.00102202
-0.000361342
0.000186963
0.000503562
0.000518233
-0.000449674
-0.000606122
-0.000900062
-0.00127747
-0.00170784
-0.00213621
-0.00248498
-0.00266948
-0.00265327
-0.00246943
-0.00217426
-0.00182243
-0.00145636
-0.00109097
-0.000738279
-0.000414986
-0.00013929
6.61575e-05
0.000163004
8.74384e-05
-0.00051203
-0.000684518
-0.0009834
-0.00134836
-0.00174506
-0.00211874
-0.00242015
-0.00260506
-0.00264943
-0.00251993
-0.0022322
-0.00186899
-0.00152207
-0.00122033
-0.000943536
-0.000679112
-0.000431657
-0.000225957
-0.000105137
-0.00014074
0.0208294
0.0136494
0.00428371
-0.00253621
-0.00496564
-0.00460593
-0.00377177
-0.00339738
-0.00344833
-0.00359471
-0.0036684
-0.00369701
-0.00375478
-0.00383724
-0.0039291
-0.0040996
-0.00429445
-0.00436457
-0.0043731
-0.00444627
-0.00455406
-0.00467476
-0.00480873
-0.00490593
-0.00498491
-0.00511791
-0.00528904
-0.00543326
-0.00554259
-0.00565612
-0.00580015
-0.00594826
-0.0060675
-0.00617813
-0.00631694
-0.00646451
-0.0065929
-0.00670937
-0.0068341
-0.00697578
-0.00712258
-0.00726775
-0.00741863
-0.00758357
-0.00774673
-0.00790276
-0.00805433
-0.00820144
-0.00834623
-0.00849134
-0.00864506
-0.00880428
-0.00897366
-0.00915487
-0.00934084
-0.0095135
-0.00968507
-0.00986864
-0.0100402
-0.0102065
-0.0103824
-0.0105707
-0.0107594
-0.0109404
-0.0111311
-0.0113246
-0.0115211
-0.0117117
-0.0119067
-0.0121153
-0.0123263
-0.0125354
-0.0127361
-0.0129526
-0.0131795
-0.0134046
-0.0136408
-0.0138723
-0.014116
-0.0143492
-0.0145856
-0.0148488
-0.0150861
-0.0153392
-0.0156176
-0.0158549
-0.0161121
-0.0163925
-0.0166424
-0.0169091
-0.0171843
-0.0174344
-0.0177195
-0.017988
-0.0182365
-0.0185309
-0.018826
-0.019081
-0.019346
-0.0196368
0.0196337
0.0134749
0.00436815
-0.00239827
-0.00487724
-0.0045617
-0.00374427
-0.00337886
-0.00343558
-0.00358525
-0.00366074
-0.00369043
-0.00374898
-0.00383201
-0.00392419
-0.00409518
-0.0042908
-0.00436138
-0.00437002
-0.00444343
-0.00455149
-0.00467238
-0.00480664
-0.00490404
-0.00498306
-0.00511614
-0.00528744
-0.00543181
-0.0055412
-0.00565477
-0.00579886
-0.00594708
-0.0060664
-0.00617705
-0.00631591
-0.00646357
-0.00659203
-0.00670854
-0.0068333
-0.00697502
-0.00712187
-0.00726708
-0.00741799
-0.00758295
-0.00774615
-0.00790221
-0.00805381
-0.00820095
-0.00834576
-0.00849089
-0.00864462
-0.00880386
-0.00897326
-0.00915449
-0.00934048
-0.00951316
-0.00968473
-0.00986831
-0.0100399
-0.0102062
-0.0103821
-0.0105705
-0.0107591
-0.0109401
-0.0111308
-0.0113243
-0.0115208
-0.0117115
-0.0119065
-0.0121151
-0.0123261
-0.0125352
-0.0127359
-0.0129524
-0.0131793
-0.0134044
-0.0136406
-0.0138722
-0.0141158
-0.014349
-0.0145854
-0.0148486
-0.015086
-0.0153391
-0.0156175
-0.0158549
-0.016112
-0.0163924
-0.0166423
-0.016909
-0.0171842
-0.0174343
-0.0177195
-0.017988
-0.0182365
-0.0185309
-0.018826
-0.0190809
-0.019346
-0.0196367
0.0186425
0.0133522
0.00456284
-0.00213612
-0.00472784
-0.00450524
-0.00371595
-0.00335701
-0.00341809
-0.00357168
-0.00365026
-0.00368233
-0.00374269
-0.00382691
-0.00391956
-0.00409087
-0.00428706
-0.00435807
-0.00436701
-0.00444079
-0.00454906
-0.0046701
-0.00480464
-0.00490227
-0.00498136
-0.00511456
-0.00528604
-0.00543052
-0.00553996
-0.00565357
-0.00579774
-0.00594605
-0.00606542
-0.00617609
-0.00631501
-0.00646275
-0.00659125
-0.0067078
-0.00683258
-0.00697435
-0.00712124
-0.00726648
-0.00741741
-0.00758242
-0.00774565
-0.00790174
-0.00805336
-0.00820052
-0.00834535
-0.00849049
-0.00864424
-0.00880349
-0.0089729
-0.00915415
-0.00934017
-0.00951286
-0.00968443
-0.00986804
-0.0100396
-0.0102059
-0.0103819
-0.0105702
-0.0107589
-0.0109399
-0.0111306
-0.0113241
-0.0115206
-0.0117113
-0.0119063
-0.0121149
-0.012326
-0.012535
-0.0127358
-0.0129523
-0.0131791
-0.0134043
-0.0136405
-0.013872
-0.0141157
-0.0143489
-0.0145853
-0.0148485
-0.0150859
-0.015339
-0.0156174
-0.0158548
-0.0161119
-0.0163923
-0.0166422
-0.0169089
-0.0171841
-0.0174343
-0.0177194
-0.0179879
-0.0182364
-0.0185308
-0.0188259
-0.0190809
-0.019346
-0.0196367
0.0177446
0.013214
0.00479539
-0.00181541
-0.00452979
-0.00442815
-0.00367574
-0.00332413
-0.00339074
-0.0035502
-0.00363386
-0.00367002
-0.00373366
-0.00382034
-0.00391411
-0.00408548
-0.00428174
-0.00435338
-0.00436329
-0.00443781
-0.00454623
-0.00466721
-0.00480201
-0.00490003
-0.00497941
-0.0051128
-0.00528442
-0.00542903
-0.00553862
-0.00565231
-0.00579654
-0.00594492
-0.00606435
-0.00617506
-0.00631404
-0.00646185
-0.00659039
-0.00670699
-0.00683181
-0.00697362
-0.00712055
-0.00726584
-0.00741681
-0.00758186
-0.00774513
-0.00790123
-0.00805288
-0.00820007
-0.00834492
-0.00849007
-0.00864383
-0.0088031
-0.00897253
-0.0091538
-0.00933985
-0.00951256
-0.00968413
-0.00986776
-0.0100393
-0.0102056
-0.0103816
-0.01057
-0.0107587
-0.0109397
-0.0111304
-0.0113239
-0.0115204
-0.0117111
-0.0119061
-0.0121147
-0.0123258
-0.0125349
-0.0127356
-0.0129521
-0.013179
-0.0134042
-0.0136403
-0.0138719
-0.0141156
-0.0143488
-0.0145852
-0.0148484
-0.0150858
-0.0153389
-0.0156173
-0.0158547
-0.0161118
-0.0163922
-0.0166422
-0.0169089
-0.0171841
-0.0174342
-0.0177194
-0.0179879
-0.0182364
-0.0185308
-0.0188259
-0.0190809
-0.019346
-0.0196368
0.0168479
0.0130196
0.00502337
-0.00148157
-0.00431466
-0.0043419
-0.00362984
-0.00328355
-0.00335437
-0.00352029
-0.00361044
-0.00365214
-0.00372044
-0.00381109
-0.00390711
-0.00407831
-0.00427386
-0.00434638
-0.0043583
-0.00443425
-0.00454281
-0.0046634
-0.00479825
-0.00489693
-0.00497698
-0.00511058
-0.00528219
-0.00542699
-0.00553696
-0.00565088
-0.00579511
-0.00594352
-0.00606308
-0.00617391
-0.00631293
-0.00646074
-0.00658933
-0.00670601
-0.0068309
-0.00697273
-0.00711971
-0.00726506
-0.00741611
-0.00758122
-0.00774452
-0.00790065
-0.00805234
-0.00819956
-0.00834443
-0.00848959
-0.00864336
-0.00880266
-0.00897211
-0.00915341
-0.00933949
-0.00951221
-0.00968379
-0.00986745
-0.010039
-0.0102054
-0.0103813
-0.0105697
-0.0107584
-0.0109394
-0.0111301
-0.0113237
-0.0115202
-0.0117109
-0.0119059
-0.0121145
-0.0123256
-0.0125347
-0.0127354
-0.012952
-0.0131788
-0.013404
-0.0136402
-0.0138718
-0.0141154
-0.0143487
-0.0145851
-0.0148483
-0.0150857
-0.0153388
-0.0156172
-0.0158546
-0.0161117
-0.0163921
-0.0166421
-0.0169088
-0.017184
-0.0174341
-0.0177193
-0.0179878
-0.0182363
-0.0185307
-0.0188259
-0.0190808
-0.0193459
-0.0196368
0.0159529
0.0127719
0.00524195
-0.00114305
-0.00409018
-0.00425162
-0.0035837
-0.00324069
-0.00331343
-0.00348529
-0.00358229
-0.00363005
-0.00370356
-0.00379914
-0.00389828
-0.00406907
-0.00426319
-0.00433684
-0.00435182
-0.00442995
-0.00453881
-0.00465868
-0.00479329
-0.00489288
-0.00497404
-0.00510783
-0.00527911
-0.0054241
-0.00553479
-0.00564916
-0.00579332
-0.00594167
-0.00606149
-0.0061726
-0.00631165
-0.00645936
-0.006588
-0.00670485
-0.0068298
-0.00697161
-0.00711861
-0.00726409
-0.00741526
-0.00758045
-0.00774378
-0.00789995
-0.00805169
-0.00819896
-0.00834385
-0.00848902
-0.00864281
-0.00880213
-0.00897162
-0.00915294
-0.00933906
-0.00951181
-0.00968339
-0.00986709
-0.0100387
-0.010205
-0.010381
-0.0105694
-0.0107581
-0.0109391
-0.0111299
-0.0113234
-0.01152
-0.0117107
-0.0119056
-0.0121143
-0.0123254
-0.0125345
-0.0127352
-0.0129518
-0.0131786
-0.0134038
-0.01364
-0.0138716
-0.0141153
-0.0143485
-0.0145849
-0.0148482
-0.0150856
-0.0153386
-0.0156171
-0.0158545
-0.0161116
-0.016392
-0.016642
-0.0169087
-0.0171839
-0.0174341
-0.0177192
-0.0179877
-0.0182362
-0.0185306
-0.0188258
-0.0190808
-0.0193459
-0.0196369
0.0150717
0.0124792
0.00544953
-0.000800936
-0.00385615
-0.00415693
-0.00353823
-0.00319747
-0.00327005
-0.00344736
-0.00355147
-0.00360551
-0.00368439
-0.00378524
-0.00388788
-0.00405804
-0.00425025
-0.00432526
-0.00434404
-0.0044249
-0.00453421
-0.00465316
-0.00478731
-0.00488809
-0.00497075
-0.00510462
-0.00527513
-0.00542022
-0.00553196
-0.00564702
-0.00579103
-0.00593921
-0.00605947
-0.00617108
-0.00631015
-0.00645768
-0.00658639
-0.0067035
-0.00682854
-0.00697023
-0.0071172
-0.00726283
-0.00741419
-0.00757948
-0.00774286
-0.00789908
-0.00805092
-0.00819825
-0.00834317
-0.00848833
-0.00864213
-0.00880149
-0.00897102
-0.00915238
-0.00933853
-0.00951132
-0.00968293
-0.00986665
-0.0100383
-0.0102047
-0.0103807
-0.010569
-0.0107578
-0.0109388
-0.0111296
-0.0113231
-0.0115197
-0.0117104
-0.0119054
-0.0121141
-0.0123251
-0.0125343
-0.012735
-0.0129515
-0.0131784
-0.0134036
-0.0136398
-0.0138714
-0.0141151
-0.0143484
-0.0145847
-0.014848
-0.0150854
-0.0153385
-0.0156169
-0.0158543
-0.0161115
-0.0163919
-0.0166419
-0.0169086
-0.0171838
-0.017434
-0.0177191
-0.0179877
-0.0182362
-0.0185306
-0.0188257
-0.0190807
-0.0193459
-0.019637
0.0142145
0.0121446
0.00564105
-0.000456697
-0.00361136
-0.00405612
-0.00349306
-0.00315455
-0.00322495
-0.00340714
-0.00351867
-0.00357935
-0.00366375
-0.00376998
-0.00387627
-0.00404574
-0.00423581
-0.00431231
-0.00433532
-0.00441922
-0.00452906
-0.00464698
-0.00478061
-0.00488283
-0.00496734
-0.00510116
-0.00527045
-0.00541546
-0.00552846
-0.0056444
-0.00578816
-0.00593608
-0.00605692
-0.00616925
-0.00630835
-0.00645562
-0.00658449
-0.00670201
-0.00682717
-0.00696864
-0.00711549
-0.00726128
-0.00741285
-0.00757823
-0.00774165
-0.00789799
-0.00804997
-0.00819744
-0.0083424
-0.00848753
-0.00864131
-0.00880071
-0.00897028
-0.00915166
-0.00933786
-0.00951072
-0.00968236
-0.0098661
-0.0100378
-0.0102042
-0.0103803
-0.0105686
-0.0107574
-0.0109385
-0.0111292
-0.0113228
-0.0115194
-0.0117101
-0.0119051
-0.0121138
-0.0123249
-0.012534
-0.0127347
-0.0129513
-0.0131782
-0.0134034
-0.0136396
-0.0138712
-0.0141149
-0.0143482
-0.0145845
-0.0148478
-0.0150852
-0.0153383
-0.0156168
-0.0158542
-0.0161113
-0.0163918
-0.0166417
-0.0169084
-0.0171837
-0.0174338
-0.017719
-0.0179876
-0.0182361
-0.0185305
-0.0188256
-0.0190807
-0.0193459
-0.0196371
0.013389
0.0117704
0.00581045
-0.000112393
-0.00335472
-0.00394728
-0.0034476
-0.00311243
-0.00317856
-0.00336476
-0.00348406
-0.00355181
-0.00364192
-0.00375363
-0.00386374
-0.00403257
-0.00422042
-0.00429845
-0.0043259
-0.004413
-0.00452341
-0.00464028
-0.00477342
-0.00487728
-0.00496386
-0.00509757
-0.00526536
-0.0054101
-0.00552444
-0.00564135
-0.00578476
-0.00593233
-0.00605387
-0.00616708
-0.00630619
-0.00645314
-0.00658224
-0.00670038
-0.00682576
-0.00696696
-0.00711359
-0.00725951
-0.00741127
-0.00757667
-0.0077401
-0.00789656
-0.00804879
-0.00819648
-0.00834155
-0.00848665
-0.00864038
-0.0087998
-0.00896939
-0.00915076
-0.00933701
-0.00950998
-0.00968167
-0.00986541
-0.0100371
-0.0102037
-0.0103798
-0.0105681
-0.0107569
-0.010938
-0.0111289
-0.0113224
-0.011519
-0.0117098
-0.0119047
-0.0121134
-0.0123245
-0.0125337
-0.0127345
-0.012951
-0.0131779
-0.0134031
-0.0136394
-0.013871
-0.0141146
-0.0143479
-0.0145843
-0.0148476
-0.015085
-0.0153381
-0.0156165
-0.0158539
-0.0161111
-0.0163916
-0.0166415
-0.0169082