/*--------------------------------*- C++ -*----------------------------------*\
| =========                 |                                                 |
| \\      /  F ield         | OpenFOAM: The Open Source CFD Toolbox           |
|  \\    /   O peration     | Version:  2506                                  |
|   \\  /    A nd           | Website:  www.openfoam.com                      |
|    \\/     M anipulation  |                                                 |
\*---------------------------------------------------------------------------*/
FoamFile
{
    version     2.0;
    format      ascii;
    arch        "LSB;label=32;scalar=64";
    class       volVectorField;
    location    "1.35";
    object      U;
}
// * * * * * * * * * * * * * * * * * * * * * * * * * * * * * * * * * * * * * //

dimensions      [0 1 -1 0 0 0 0];

internalField   nonuniform List<vector> 
9600
(
(0.854896 0.0018872 0)
(1.14624 -0.0010133 0)
(0.810582 -0.00718771 0)
(1.19008 0.00583862 0)
(0.897436 0.00231545 0)
(1.09964 0.00552291 0)
(0.859097 -0.00269805 0)
(1.13693 -0.00676366 0)
(0.861189 -0.00421588 0)
(1.14654 0.000778406 0)
(0.875492 -0.00393888 0)
(1.11237 0.00487116 0)
(0.887943 0.003608 0)
(1.0988 0.00989808 0)
(0.885982 0.00106183 0)
(1.09313 0.000590037 0)
(0.879376 -0.000229941 0)
(1.09659 -0.00500364 0)
(0.868897 0.002807 0)
(1.10372 -0.00816455 0)
(0.86436 0.00179569 0)
(1.13363 -0.00049921 0)
(0.825311 -0.00775821 0)
(1.17821 0.00521147 0)
(0.913965 0.00301316 0)
(1.08837 0.00610989 0)
(0.883507 -0.0033171 0)
(1.11768 -0.00659578 0)
(0.885867 -0.00463949 0)
(1.12466 0.000830142 0)
(0.905445 -0.00360293 0)
(1.08788 0.00487838 0)
(0.923277 0.0037084 0)
(1.06355 0.0100329 0)
(0.938926 0.00113559 0)
(1.04065 0.000807596 0)
(0.951229 -0.000178407 0)
(1.01954 -0.00521734 0)
(0.967064 0.00353378 0)
(0.991817 -0.00936554 0)
(0.882727 0.00175158 0)
(1.11134 -9.85028e-05 0)
(0.853052 -0.00830843 0)
(1.15227 0.00467501 0)
(0.941152 0.0036876 0)
(1.06808 0.00652423 0)
(0.918562 -0.00374435 0)
(1.08593 -0.00648087 0)
(0.924491 -0.00488707 0)
(1.0884 0.000749456 0)
(0.948082 -0.00316739 0)
(1.05061 0.00468182 0)
(0.9638 0.00410456 0)
(1.0258 0.00977803 0)
(0.978474 0.00172467 0)
(1.00473 0.000391678 0)
(0.983985 0.000278235 0)
(0.992859 -0.00542012 0)
(0.987051 0.00348415 0)
(0.987167 -0.00653831 0)
(0.907086 0.00175288 0)
(1.08364 0.000175179 0)
(0.888702 -0.00871536 0)
(1.11626 0.00413681 0)
(0.969188 0.00428307 0)
(1.04488 0.00679436 0)
(0.951894 -0.00392813 0)
(1.05201 -0.00650684 0)
(0.960228 -0.00497671 0)
(1.05251 0.000507891 0)
(0.981141 -0.00267706 0)
(1.02096 0.00449696 0)
(0.986403 0.00447781 0)
(1.0057 0.00952215 0)
(0.992468 0.00212302 0)
(0.993562 0.000272105 0)
(0.989741 0.000583638 0)
(0.989191 -0.00550475 0)
(0.986978 0.00375548 0)
(0.988212 -0.00543842 0)
(0.933165 0.00178652 0)
(1.05596 0.000347806 0)
(0.924693 -0.00900346 0)
(1.07799 0.00356217 0)
(0.990298 0.0047981 0)
(1.02519 0.00700168 0)
(0.976212 -0.00396606 0)
(1.02575 -0.00661296 0)
(0.983079 -0.00501131 0)
(1.02701 0.000265953 0)
(0.997364 -0.00224382 0)
(1.00507 0.00444836 0)
(0.993515 0.00472383 0)
(0.998266 0.00935859 0)
(0.995759 0.0024433 0)
(0.991842 0.000245748 0)
(0.990778 0.000755867 0)
(0.988942 -0.00541872 0)
(0.987036 0.00379811 0)
(0.987448 -0.00463068 0)
(0.956734 0.00184183 0)
(1.03314 0.000425557 0)
(0.954739 -0.00917686 0)
(1.045 0.00307293 0)
(1.00159 0.00518343 0)
(1.01223 0.00715215 0)
(0.990761 -0.00392244 0)
(1.01055 -0.00671544 0)
(0.993377 -0.0050286 0)
(1.01255 9.56498e-05 0)
(1.00184 -0.00191154 0)
(0.998146 0.00450097 0)
(0.994198 0.00489006 0)
(0.995658 0.00921214 0)
(0.9967 0.00270318 0)
(0.992546 0.000215215 0)
(0.992006 0.000926018 0)
(0.989909 -0.0052575 0)
(0.987833 0.00369997 0)
(0.987898 -0.00367705 0)
(0.974987 0.00189907 0)
(1.01761 0.00043519 0)
(0.976049 -0.0092409 0)
(1.02135 0.00272572 0)
(1.0047 0.00540943 0)
(1.00547 0.00724189 0)
(0.998521 -0.00384223 0)
(1.00406 -0.0067747 0)
(0.996298 -0.00502472 0)
(1.00518 -2.35154e-05 0)
(1.00133 -0.00165151 0)
(0.995102 0.00457611 0)
(0.993576 0.00501422 0)
(0.994885 0.0090275 0)
(0.997415 0.00290111 0)
(0.994042 0.000165469 0)
(0.993513 0.00107943 0)
(0.991622 -0.00503881 0)
(0.989064 0.00355972 0)
(0.989112 -0.00265312 0)
(0.987153 0.00194079 0)
(1.00898 0.000408719 0)
(0.989072 -0.00921862 0)
(1.00702 0.00251215 0)
(1.00334 0.00549713 0)
(1.00267 0.00726239 0)
(1.00265 -0.00375555 0)
(1.00226 -0.00678452 0)
(0.996414 -0.00498418 0)
(1.00134 -0.000118163 0)
(0.999642 -0.0014311 0)
(0.993625 0.0046277 0)
(0.993272 0.00510602 0)
(0.995186 0.00879277 0)
(0.998373 0.00305542 0)
(0.995768 0.000113861 0)
(0.995138 0.00120013 0)
(0.993441 -0.00475107 0)
(0.990562 0.00339573 0)
(0.990483 -0.00161799 0)
(0.994123 0.0019598 0)
(1.00518 0.000366981 0)
(0.995923 -0.0091353 0)
(0.999551 0.00240159 0)
(1.0008 0.00549245 0)
(1.00183 0.00721012 0)
(1.00499 -0.00367217 0)
(1.0022 -0.00675264 0)
(0.995996 -0.00489968 0)
(0.999165 -0.000197708 0)
(0.998094 -0.00123535 0)
(0.992939 0.00464063 0)
(0.993499 0.00516484 0)
(0.996101 0.00851995 0)
(0.999536 0.00317546 0)
(0.997398 6.07154e-05 0)
(0.996658 0.00129357 0)
(0.995014 -0.00438388 0)
(0.992004 0.00320381 0)
(0.99173 -0.000609181 0)
(0.997536 0.00195787 0)
(1.00399 0.000320345 0)
(0.998923 -0.00900932 0)
(0.996089 0.00235572 0)
(0.998824 0.00543413 0)
(1.0018 0.00709582 0)
(1.00635 -0.0035885 0)
(1.00247 -0.00669107 0)
(0.99568 -0.00477551 0)
(0.997867 -0.000264654 0)
(0.996982 -0.00105719 0)
(0.992718 0.00461274 0)
(0.994049 0.00519055 0)
(0.997192 0.00821971 0)
(1.00065 0.00327833 0)
(0.998747 2.91553e-05 0)
(0.99788 0.00136089 0)
(0.996216 -0.00394644 0)
(0.993157 0.00300112 0)
(0.992702 0.000347329 0)
(0.998946 0.00194077 0)
(1.00387 0.000274229 0)
(0.99986 -0.00885293 0)
(0.994575 0.00233899 0)
(0.997841 0.00534521 0)
(1.0021 0.00693881 0)
(1.00708 -0.00349743 0)
(1.00262 -0.00661049 0)
(0.995478 -0.00462202 0)
(0.997109 -0.000321385 0)
(0.996315 -0.000892687 0)
(0.992776 0.0045495 0)
(0.994693 0.00518542 0)
(0.99817 0.00790318 0)
(1.00153 0.0033665 0)
(0.999741 3.43604e-05 0)
(0.998728 0.00139974 0)
(0.997041 -0.00345023 0)
(0.993967 0.00279004 0)
(0.993363 0.00125687 0)
(0.99942 0.00191422 0)
(1.00404 0.000230877 0)
(0.999865 -0.00867372 0)
(0.993893 0.00232701 0)
(0.997619 0.0052373 0)
(1.00249 0.00675704 0)
(1.0074 -0.00339332 0)
(1.00261 -0.00651809 0)
(0.995322 -0.00444879 0)
(0.996692 -0.000372926 0)
(0.996017 -0.00074075 0)
(0.993 0.00446042 0)
(0.995302 0.00515486 0)
(0.998924 0.00758382 0)
(1.00211 0.00342895 0)
(1.0004 7.48096e-05 0)
(0.999239 0.00142543 0)
(0.997553 -0.00291251 0)
(0.994499 0.00259751 0)
(0.993774 0.00208762 0)
(0.999539 0.00188201 0)
(1.00421 0.000191045 0)
(0.999559 -0.00847651 0)
(0.993562 0.00230695 0)
(0.997793 0.00511584 0)
(1.00285 0.00656189 0)
(1.00748 -0.00327339 0)
(1.0025 -0.00641796 0)
(0.995198 -0.00426282 0)
(0.996483 -0.000423498 0)
(0.995974 -0.000601944 0)
(0.993311 0.0043553 0)
(0.995834 0.0051047 0)
(0.999462 0.00727182 0)
(1.00245 0.00346881 0)
(1.00081 0.000155276 0)
(0.999504 0.00143487 0)
(0.997843 -0.00236149 0)
(0.994855 0.00246579 0)
(0.994028 0.00278605 0)
(0.999563 0.00184615 0)
(1.0043 0.000154753 0)
(0.999239 -0.00826474 0)
(0.993409 0.00227423 0)
(0.99809 0.00498401 0)
(1.00312 0.00635928 0)
(1.00743 -0.0031378 0)
(1.00237 -0.00631211 0)
(0.995124 -0.00406944 0)
(0.996397 -0.000473046 0)
(0.996073 -0.000477323 0)
(0.993649 0.00424389 0)
(0.996279 0.00503449 0)
(0.999825 0.00697754 0)
(1.0026 0.00348994 0)
(1.00103 0.000270247 0)
(0.999613 0.00143986 0)
(0.997999 -0.00181049 0)
(0.995123 0.00239581 0)
(0.994213 0.00335287 0)
(0.999578 0.00180771 0)
(1.00429 0.000121207 0)
(0.999013 -0.00804115 0)
(0.993376 0.00222907 0)
(0.99837 0.00484482 0)
(1.00327 0.00615121 0)
(1.00731 -0.00298818 0)
(1.00225 -0.00620181 0)
(0.995111 -0.00387224 0)
(0.996382 -0.000523195 0)
(0.99623 -0.000366893 0)
(0.993968 0.00413508 0)
(0.996635 0.00494358 0)
(1.00005 0.00670331 0)
(1.00261 0.0034958 0)
(1.00113 0.000406026 0)
(0.999637 0.00145861 0)
(0.998085 -0.0012822 0)
(0.995363 0.00238826 0)
(0.994389 0.00381166 0)
(0.999605 0.00176732 0)
(1.00423 8.94199e-05 0)
(0.998898 -0.00780815 0)
(0.993432 0.00217381 0)
(0.998584 0.00470123 0)
(1.0033 0.00593795 0)
(1.00716 -0.00282779 0)
(1.00215 -0.00608768 0)
(0.995157 -0.00367305 0)
(0.996412 -0.000569976 0)
(0.996399 -0.000272929 0)
(0.994244 0.00403389 0)
(0.996906 0.0048342 0)
(1.00017 0.00644762 0)
(1.00254 0.00348697 0)
(1.00115 0.000563736 0)
(0.999621 0.0014978 0)
(0.998143 -0.000784431 0)
(0.995606 0.0024353 0)
(0.994584 0.00418729 0)
(0.999638 0.00172531 0)
(1.00411 5.86477e-05 0)
(0.998868 -0.00756784 0)
(0.993553 0.00211126 0)
(0.998738 0.00455533 0)
(1.00324 0.00572014 0)
(1.00697 -0.00266111 0)
(1.00209 -0.00596864 0)
(0.995248 -0.00347528 0)
(0.996471 -0.000606002 0)
(0.996564 -0.000197083 0)
(0.994473 0.0039426 0)
(0.997105 0.00470923 0)
(1.00022 0.00620878 0)
(1.0024 0.00346976 0)
(1.00111 0.000726753 0)
(0.999588 0.00156426 0)
(0.998193 -0.000313586 0)
(0.995864 0.00251885 0)
(0.994806 0.00449625 0)
(0.999671 0.00168199 0)
(1.00398 2.81579e-05 0)
(0.99889 -0.00732158 0)
(0.993715 0.00204362 0)
(0.998852 0.00440844 0)
(1.00311 0.00549867 0)
(1.00676 -0.00249115 0)
(1.00205 -0.00584507 0)
(0.995369 -0.00328122 0)
(0.996548 -0.000631869 0)
(0.996723 -0.000139566 0)
(0.994665 0.00386384 0)
(0.997251 0.00457049 0)
(1.00021 0.00598172 0)
(1.00222 0.00345981 0)
(1.00104 0.000881255 0)
(0.999554 0.00166056 0)
(0.998245 0.000133937 0)
(0.996134 0.00262098 0)
(0.995054 0.0047511 0)
(0.999702 0.00163748 0)
(1.00384 -2.17216e-06 0)
(0.998939 -0.00707089 0)
(0.993899 0.00197264 0)
(0.998944 0.0042613 0)
(1.00296 0.00527446 0)
(1.00653 -0.00232012 0)
(1.00202 -0.00571646 0)
(0.995504 -0.00309358 0)
(0.996636 -0.000643685 0)
(0.99688 -0.000100049 0)
(0.994836 0.00379645 0)
(0.99736 0.00442329 0)
(1.00017 0.00576151 0)
(1.00202 0.00346105 0)
(1.00097 0.00102311 0)
(0.999525 0.00178184 0)
(0.998301 0.000555806 0)
(0.996412 0.00273036 0)
(0.995322 0.00496331 0)
(0.99973 0.00159171 0)
(1.00369 -3.19605e-05 0)
(0.998997 -0.00681735 0)
(0.994095 0.00190001 0)
(0.999025 0.00411338 0)
(1.0028 0.00504975 0)
(1.00628 -0.00215233 0)
(1.002 -0.00557879 0)
(0.995643 -0.00291514 0)
(0.996731 -0.00063899 0)
(0.997037 -7.631e-05 0)
(0.994998 0.00373667 0)
(0.997447 0.00427646 0)
(1.00013 0.00554021 0)
(1.00182 0.00347141 0)
(1.00089 0.00115181 0)
(0.999505 0.00191635 0)
(0.998363 0.000955283 0)
(0.996692 0.00283238 0)
(0.995605 0.00513163 0)
(0.999755 0.0015448 0)
(1.00354 -6.13278e-05 0)
(0.999057 -0.00656167 0)
(0.994297 0.00182665 0)
(0.999099 0.00396378 0)
(1.00265 0.00482659 0)
(1.00602 -0.00199055 0)
(1.00198 -0.00543175 0)
(0.99578 -0.00274573 0)
(0.996828 -0.000618867 0)
(0.997194 -6.57019e-05 0)
(0.995161 0.00368122 0)
(0.997522 0.0041368 0)
(1.0001 0.00530786 0)
(1.00162 0.00349935 0)
(1.00082 0.00127697 0)
(0.999498 0.00205192 0)
(0.998431 0.00134889 0)
(0.99697 0.00292984 0)
(0.995902 0.00525561 0)
(0.999778 0.00149659 0)
(1.0034 -8.96625e-05 0)
(0.999115 -0.00630521 0)
(0.994503 0.00175431 0)
(0.999167 0.00381118 0)
(1.0025 0.00460654 0)
(1.00575 -0.00183471 0)
(1.00197 -0.00527793 0)
(0.995913 -0.00258515 0)
(0.996924 -0.000582232 0)
(0.99735 -6.35317e-05 0)
(0.995329 0.00362099 0)
(0.997587 0.00401238 0)
(1.00007 0.00506453 0)
(1.00142 0.00354421 0)
(1.00076 0.00140429 0)
(0.999506 0.00216926 0)
(0.998503 0.001737 0)
(0.997241 0.00303803 0)
(0.99621 0.00533945 0)
(0.9998 0.00144694 0)
(1.00325 -0.00011615 0)
(0.999171 -0.00604954 0)
(0.994711 0.00168405 0)
(0.999229 0.00365443 0)
(1.00236 0.00439244 0)
(1.00548 -0.00168716 0)
(1.00197 -0.00511401 0)
(0.996044 -0.00243534 0)
(0.997018 -0.000535196 0)
(0.997505 -6.71853e-05 0)
(0.995504 0.00355111 0)
(0.997645 0.00390403 0)
(1.00006 0.00481781 0)
(1.00123 0.00359318 0)
(1.0007 0.00154469 0)
(0.999532 0.00227024 0)
(0.998583 0.0021087 0)
(0.997502 0.00316113 0)
(0.996529 0.00538091 0)
(0.999822 0.0013959 0)
(1.00311 -0.000140427 0)
(0.999227 -0.00579607 0)
(0.994923 0.00161704 0)
(0.999288 0.003493 0)
(1.00223 0.00418576 0)
(1.00521 -0.0015483 0)
(1.00197 -0.00494052 0)
(0.996176 -0.0022943 0)
(0.997108 -0.000478634 0)
(0.997658 -6.90264e-05 0)
(0.995683 0.00347227 0)
(0.997696 0.00381056 0)
(1.00006 0.00457119 0)
(1.00105 0.00364038 0)
(1.00065 0.00170309 0)
(0.999575 0.00236169 0)
(0.99867 0.00245332 0)
(0.99775 0.00329779 0)
(0.996856 0.00537909 0)
(0.999844 0.00134304 0)
(1.00297 -0.000161474 0)
(0.999284 -0.00554659 0)
(0.995135 0.00155576 0)
(0.999345 0.00332515 0)
(1.00209 0.00398605 0)
(1.00494 -0.00141666 0)
(1.00197 -0.00476198 0)
(0.996313 -0.002158 0)
(0.997196 -0.000414555 0)
(0.99781 -6.55858e-05 0)
(0.995864 0.00338542 0)
(0.997741 0.00373422 0)
(1.00007 0.0043284 0)
(1.0009 0.00368483 0)
(1.0006 0.00187748 0)
(0.999634 0.00244583 0)
(0.998764 0.00276846 0)
(0.997984 0.00345248 0)
(0.99719 0.00533681 0)
(0.999866 0.00128845 0)
(1.00283 -0.00017887 0)
(0.999342 -0.00530285 0)
(0.995349 0.00150198 0)
(0.999401 0.00315018 0)
(1.00196 0.00379259 0)
(1.00467 -0.00129261 0)
(1.00197 -0.00457759 0)
(0.996456 -0.00202519 0)
(0.997281 -0.000353245 0)
(0.997963 -6.013e-05 0)
(0.996048 0.00329141 0)
(0.997782 0.00367082 0)
(1.00009 0.00409512 0)
(1.00076 0.00372217 0)
(1.00055 0.00206853 0)
(0.999708 0.00252426 0)
(0.998868 0.0030526 0)
(0.998201 0.00363105 0)
(0.997526 0.00526412 0)
(0.999889 0.00123204 0)
(1.00269 -0.00019156 0)
(0.999403 -0.0050675 0)
(0.995562 0.00145659 0)
(0.999458 0.00297048 0)
(1.00183 0.0036038 0)
(1.0044 -0.00117386 0)
(1.00197 -0.0043935 0)
(0.996605 -0.00189233 0)
(0.997363 -0.000291706 0)
(0.998119 -5.40708e-05 0)
(0.996233 0.00319206 0)
(0.99782 0.00361682 0)
(1.00012 0.00387601 0)
(1.00064 0.00375038 0)
(1.00049 0.00227837 0)
(0.999794 0.00259796 0)
(0.998982 0.00329788 0)
(0.998398 0.00383593 0)
(0.997855 0.00518175 0)
(0.999911 0.00117335 0)
(1.00255 -0.000198183 0)
(0.999465 -0.00484211 0)
(0.995776 0.00141908 0)
(0.999516 0.00278719 0)
(1.0017 0.00342139 0)
(1.00414 -0.00105553 0)
(1.00196 -0.00421473 0)
(0.996762 -0.00175499 0)
(0.997443 -0.000227098 0)
(0.998278 -4.49588e-05 0)
(0.99642 0.00309327 0)
(0.997856 0.00357205 0)
(1.00014 0.00367487 0)
(1.00055 0.00376825 0)
(1.00043 0.00250233 0)
(0.999887 0.002667 0)
(0.999111 0.00348838 0)
(0.998577 0.00406111 0)
(0.998167 0.0051195 0)
(0.999931 0.00111246 0)
(1.00241 -0.000198674 0)
(0.999529 -0.00462715 0)
(0.995988 0.00138965 0)
(0.999575 0.00260199 0)
(1.00158 0.00324044 0)
(1.00387 -0.000933952 0)
(1.00196 -0.0040449 0)
(0.996925 -0.00161489 0)
(0.99752 -0.000159063 0)
(0.998441 -3.85501e-05 0)
(0.996612 0.00300282 0)
(0.99789 0.00353835 0)
(1.00017 0.00349024 0)
(1.00049 0.00377599 0)
(1.00037 0.00273595 0)
(0.999981 0.00273975 0)
(0.999259 0.00361577 0)
(0.998744 0.00428512 0)
(0.998447 0.00511463 0)
(0.999951 0.00104927 0)
(1.00228 -0.00019161 0)
(0.999593 -0.00442463 0)
(0.9962 0.00136606 0)
(0.999634 0.00242049 0)
(1.00145 0.00305484 0)
(1.00361 -0.00080554 0)
(1.00194 -0.00388815 0)
(0.997094 -0.00147962 0)
(0.997595 -8.26783e-05 0)
(0.998609 -4.37608e-05 0)
(0.996811 0.00291502 0)
(0.997922 0.00352536 0)
(1.00021 0.00332315 0)
(1.00046 0.00376879 0)
(1.00031 0.00297343 0)
(1.00007 0.00282884 0)
(0.999427 0.00369014 0)
(0.998912 0.00447133 0)
(0.998689 0.00517818 0)
(0.999968 0.000983812 0)
(1.00215 -0.000177008 0)
(0.999658 -0.00423611 0)
(0.99641 0.00134796 0)
(0.999693 0.00224462 0)
(1.00134 0.00286427 0)
(1.00335 -0.000666353 0)
(1.00193 -0.00374007 0)
(0.997269 -0.00135188 0)
(0.997665 6.92024e-06 0)
(0.998779 -5.10955e-05 0)
(0.997021 0.00281821 0)
(0.997954 0.00353228 0)
(1.00024 0.00318093 0)
(1.00046 0.0037412 0)
(1.00025 0.00320428 0)
(1.00015 0.00293774 0)
(0.999608 0.00373199 0)
(0.999091 0.00459751 0)
(0.998899 0.00528538 0)
(0.999985 0.000915927 0)
(1.00203 -0.000153907 0)
(0.999723 -0.00406034 0)
(0.996618 0.00132956 0)
(0.99975 0.00207996 0)
(1.00123 0.00266229 0)
(1.00309 -0.000511784 0)
(1.00191 -0.00359657 0)
(0.99745 -0.00123409 0)
(0.997731 0.000119341 0)
(0.998949 -5.29408e-05 0)
(0.997243 0.00271736 0)
(0.997986 0.0035601 0)
(1.00027 0.00306974 0)
(1.00049 0.00368347 0)
(1.00021 0.003417 0)
(1.00021 0.00306512 0)
(0.999799 0.00376108 0)
(0.999289 0.00467146 0)
(0.999089 0.00539213 0)
(1 0.000845573 0)
(1.0019 -0.000122587 0)
(0.999787 -0.0038945 0)
(0.996825 0.00130626 0)
(0.999803 0.00193378 0)
(1.00113 0.00244231 0)
(1.00284 -0.000345341 0)
(1.00189 -0.00345225 0)
(0.997641 -0.0011398 0)
(0.997793 0.00025294 0)
(0.999115 -5.02515e-05 0)
(0.997481 0.00260748 0)
(0.998021 0.00361112 0)
(1.0003 0.00299592 0)
(1.00055 0.00359255 0)
(1.00018 0.00360582 0)
(1.00026 0.00321284 0)
(0.999991 0.00378383 0)
(0.999506 0.00470979 0)
(0.999276 0.00546209 0)
(1.00001 0.000774087 0)
(1.00177 -8.57195e-05 0)
(0.999851 -0.00373712 0)
(0.997031 0.00127499 0)
(0.999849 0.00181195 0)
(1.00105 0.00220821 0)
(1.00259 -0.000177074 0)
(1.00186 -0.00330033 0)
(0.997841 -0.00107403 0)
(0.997854 0.000402682 0)
(0.999274 -3.29175e-05 0)
(0.997736 0.00247931 0)
(0.998063 0.00367549 0)
(1.00032 0.00296274 0)
(1.00064 0.00347536 0)
(1.00018 0.00375919 0)
(1.0003 0.00337718 0)
(1.00018 0.00379629 0)
(0.999738 0.00472291 0)
(0.999471 0.00549398 0)
(1.00003 0.000700686 0)
(1.00165 -4.2534e-05 0)
(0.999914 -0.00358469 0)
(0.997236 0.00122653 0)
(0.999888 0.0017193 0)
(1.00097 0.00196798 0)
(1.00234 -1.36735e-05 0)
(1.00182 -0.0031253 0)
(0.998052 -0.00103894 0)
(0.997916 0.000559464 0)
(0.99942 1.32128e-05 0)
(0.998009 0.00233626 0)
(0.998116 0.00373881 0)
(1.00031 0.00297155 0)
(1.00074 0.00334475 0)
(1.00021 0.00386608 0)
(1.00033 0.00355458 0)
(1.00036 0.00380287 0)
(0.999984 0.0047081 0)
(0.999679 0.00549976 0)
(1.00004 0.00062695 0)
(1.00152 3.40054e-06 0)
(0.999974 -0.00343232 0)
(0.997441 0.00115439 0)
(0.99992 0.00165478 0)
(1.00089 0.00172425 0)
(1.0021 0.000136752 0)
(1.00178 -0.00291895 0)
(0.998271 -0.00102934 0)
(0.997983 0.000714256 0)
(0.999553 9.72873e-05 0)
(0.998296 0.00218503 0)
(0.998185 0.00378009 0)
(1.0003 0.00302047 0)
(1.00085 0.00321879 0)
(1.00027 0.00392228 0)
(1.00035 0.00374016 0)
(1.00052 0.00382012 0)
(1.00024 0.00466082 0)
(0.999902 0.00548425 0)
(1.00005 0.000553316 0)
(1.0014 5.04943e-05 0)
(1.00003 -0.00327778 0)
(0.997648 0.00105401 0)
(0.999946 0.00161154 0)
(1.00083 0.00148925 0)
(1.00188 0.000264876 0)
(1.00172 -0.00267745 0)
(0.998497 -0.00102766 0)
(0.99806 0.000861229 0)
(0.99967 0.000222972 0)
(0.998593 0.00203392 0)
(0.998277 0.00378205 0)
(1.00026 0.00309755 0)
(1.00097 0.00310735 0)
(1.00036 0.00392413 0)
(1.00036 0.00392037 0)
(1.00066 0.00386484 0)
(1.00051 0.00458698 0)
(1.00015 0.00543868 0)
(1.00006 0.000480012 0)
(1.00127 9.76105e-05 0)
(1.00008 -0.00311967 0)
(0.997855 0.000926669 0)
(0.999965 0.00158383 0)
(1.00076 0.00127624 0)
(1.00167 0.000364785 0)
(1.00165 -0.00240346 0)
(0.998726 -0.00102364 0)
(0.99815 0.000983515 0)
(0.999768 0.000385394 0)
(0.998892 0.00189042 0)
(0.998393 0.00374044 0)
(1.00022 0.00319171 0)
(1.00109 0.00302069 0)
(1.0005 0.00387514 0)
(1.00039 0.00407733 0)
(1.00077 0.00394399 0)
(1.00076 0.00450267 0)
(1.00041 0.00535113 0)
(1.00007 0.000409658 0)
(1.00115 0.000138674 0)
(1.00012 -0.00294935 0)
(0.998062 0.000774909 0)
(0.99998 0.00156436 0)
(1.0007 0.001089 0)
(1.00147 0.00043766 0)
(1.00157 -0.00210734 0)
(0.998953 -0.00100519 0)
(0.998255 0.00107288 0)
(0.99985 0.000572251 0)
(0.999185 0.00176823 0)
(0.998536 0.00365987 0)
(1.00017 0.00328855 0)
(1.00118 0.00296501 0)
(1.00066 0.00378557 0)
(1.00044 0.00419307 0)
(1.00085 0.00405285 0)
(1.001 0.00443209 0)
(1.0007 0.00522465 0)
(1.00008 0.000342622 0)
(1.00103 0.000173008 0)
(1.00015 -0.00276766 0)
(0.99827 0.00060242 0)
(0.999993 0.00154061 0)
(1.00064 0.000936138 0)
(1.00129 0.000482629 0)
(1.00149 -0.00179151 0)
(0.999174 -0.000963463 0)
(0.998377 0.00113226 0)
(0.999918 0.000765545 0)
(0.999466 0.00167631 0)
(0.998706 0.00354523 0)
(1.00012 0.00337242 0)
(1.00126 0.00294293 0)
(1.00086 0.00367597 0)
(1.00052 0.00426068 0)
(1.00091 0.00417785 0)
(1.00121 0.0043951 0)
(1.001 0.00507387 0)
(1.00008 0.000280034 0)
(1.00091 0.000198317 0)
(1.00017 -0.00257289 0)
(0.998476 0.000418868 0)
(1.00001 0.00150186 0)
(1.00058 0.0008204 0)
(1.00113 0.000500367 0)
(1.0014 -0.00146508 0)
(0.999385 -0.000889286 0)
(0.998514 0.00116468 0)
(0.999975 0.000947074 0)
(0.999729 0.00161704 0)
(0.998899 0.00341289 0)
(1.00007 0.00344162 0)
(1.00132 0.00295238 0)
(1.00106 0.00355918 0)
(1.00064 0.00427552 0)
(1.00096 0.00429486 0)
(1.00138 0.00439637 0)
(1.0013 0.00492009 0)
(1.00009 0.000222988 0)
(1.0008 0.000213764 0)
(1.00018 -0.00236158 0)
(0.998678 0.000227104 0)
(1.00002 0.00144152 0)
(1.00052 0.000741502 0)
(1.00099 0.000502779 0)
(1.0013 -0.00114414 0)
(0.99958 -0.000776668 0)
(0.998663 0.00117672 0)
(1.00003 0.00110931 0)
(0.999972 0.00158325 0)
(0.999111 0.00327206 0)
(1.00004 0.00349606 0)
(1.00136 0.0029899 0)
(1.00127 0.00344403 0)
(1.00079 0.00424131 0)
(1.00102 0.00438642 0)
(1.00151 0.00443035 0)
(1.00157 0.00479415 0)
(1.00009 0.000173037 0)
(1.00069 0.000214924 0)
(1.00017 -0.00213614 0)
(0.998873 4.11091e-05 0)
(1.00004 0.00135544 0)
(1.00046 0.000695846 0)
(1.00086 0.000494354 0)
(1.00121 -0.000838049 0)
(0.999758 -0.000626478 0)
(0.998819 0.00118179 0)
(1.00007 0.00125043 0)
(1.00019 0.00156824 0)
(0.999341 0.00312611 0)
(1.00004 0.00353092 0)
(1.00137 0.00305184 0)
(1.00147 0.00334097 0)
(1.00098 0.00416475 0)
(1.00109 0.00444216 0)
(1.0016 0.0044755 0)
(1.00179 0.00471029 0)
(1.00009 0.000130868 0)
(1.00059 0.000201339 0)
(1.00016 -0.00190244 0)
(0.999058 -0.000132644 0)
(1.00007 0.001241 0)
(1.0004 0.000678231 0)
(1.00075 0.000479913 0)
(1.00112 -0.000560256 0)
(0.999918 -0.000448595 0)
(0.998979 0.00119291 0)
(1.00012 0.00137129 0)
(1.00039 0.00156919 0)
(0.999584 0.00298054 0)
(1.00005 0.00354019 0)
(1.00136 0.00313018 0)
(1.00166 0.00326157 0)
(1.0012 0.00405472 0)
(1.00119 0.00445887 0)
(1.00168 0.00451051 0)
(1.00197 0.00465865 0)
(1.00009 9.64718e-05 0)
(1.0005 0.000175674 0)
(1.00013 -0.00166699 0)
(0.99923 -0.000288032 0)
(1.00011 0.00109741 0)
(1.00034 0.000686231 0)
(1.00065 0.000473985 0)
(1.00105 -0.000325206 0)
(1.00006 -0.000258671 0)
(0.999138 0.00121875 0)
(1.00016 0.00147762 0)
(1.00057 0.00158144 0)
(0.999835 0.00283804 0)
(1.00009 0.00352207 0)
(1.00133 0.00321376 0)
(1.00181 0.00321364 0)
(1.00144 0.00392392 0)
(1.00131 0.00443749 0)
(1.00175 0.00453177 0)
(1.00211 0.00462338 0)
(1.00009 7.14727e-05 0)
(1.00042 0.000132813 0)
(1.00009 -0.00143002 0)
(0.999386 -0.000407553 0)
(1.00016 0.000930834 0)
(1.00029 0.000710445 0)
(1.00056 0.000483238 0)
(1.00098 -0.000133397 0)
(1.00019 -6.78492e-05 0)
(0.999294 0.00125846 0)
(1.00019 0.00157479 0)
(1.00072 0.00160406 0)
(1.00009 0.00269891 0)
(1.00017 0.00347788 0)
(1.0013 0.00329389 0)
(1.00194 0.00319893 0)
(1.00168 0.00378595 0)
(1.00147 0.00437271 0)
(1.00182 0.00453707 0)
(1.00222 0.00459089 0)
(1.00008 5.45057e-05 0)
(1.00035 7.77893e-05 0)
(1.00005 -0.00120134 0)
(0.999522 -0.000484634 0)
(1.00022 0.000747621 0)
(1.00025 0.000746129 0)
(1.00048 0.000516819 0)
(1.00092 2.27143e-05 0)
(1.00031 0.000107113 0)
(0.999445 0.00130574 0)
(1.00023 0.0016685 0)
(1.00085 0.00164018 0)
(1.00034 0.00256348 0)
(1.00027 0.00340482 0)
(1.00128 0.00336012 0)
(1.00202 0.00321637 0)
(1.00192 0.00366268 0)
(1.00166 0.00426825 0)
(1.0019 0.00451984 0)
(1.0023 0.00455819 0)
(1.00007 4.51939e-05 0)
(1.00029 1.20167e-05 0)
(0.999999 -0.000987008 0)
(0.999636 -0.000511794 0)
(1.00029 0.000553563 0)
(1.00022 0.000773509 0)
(1.0004 0.000582708 0)
(1.00087 0.000150406 0)
(1.00043 0.000240903 0)
(0.999596 0.00134936 0)
(1.00026 0.00176048 0)
(1.00095 0.00169423 0)
(1.00059 0.00244306 0)
(1.0004 0.00330534 0)
(1.00126 0.00339905 0)
(1.00208 0.00325124 0)
(1.00213 0.00356649 0)
(1.00187 0.00413762 0)
(1.002 0.00446935 0)
(1.00236 0.00451907 0)
(1.00007 4.35616e-05 0)
(1.00025 -6.04899e-05 0)
(0.999956 -0.00079429 0)
(0.999728 -0.000490288 0)
(1.00037 0.000364677 0)
(1.00021 0.00077405 0)
(1.00033 0.000670141 0)
(1.00082 0.000266988 0)
(1.00054 0.000339964 0)
(0.99975 0.00138306 0)
(1.0003 0.00184847 0)
(1.00103 0.00176158 0)
(1.00082 0.00234501 0)
(1.00057 0.00318569 0)
(1.00127 0.00340435 0)
(1.00211 0.00328519 0)
(1.00232 0.00349689 0)
(1.00209 0.00399994 0)
(1.00212 0.00438745 0)
(1.00242 0.00446338 0)
(1.00006 4.64728e-05 0)
(1.00021 -0.000131 0)
(0.99992 -0.000629821 0)
(0.999798 -0.000428185 0)
(1.00044 0.000196137 0)
(1.00023 0.00073941 0)
(1.00026 0.000769173 0)
(1.00077 0.000395567 0)
(1.00065 0.00042344 0)
(0.999912 0.00139542 0)
(1.00034 0.00192427 0)
(1.00108 0.00184303 0)
(1.00103 0.00227323 0)
(1.00075 0.00305782 0)
(1.00131 0.00337893 0)
(1.00213 0.00330756 0)
(1.00247 0.00344646 0)
(1.00231 0.00386691 0)
(1.00226 0.00428705 0)
(1.00249 0.00438881 0)
(1.00005 5.27274e-05 0)
(1.00019 -0.000194254 0)
(0.999895 -0.000498923 0)
(0.999849 -0.000335822 0)
(1.00052 6.3883e-05 0)
(1.00028 0.000667111 0)
(1.00022 0.000860812 0)
(1.00071 0.000544707 0)
(1.00075 0.000501761 0)
(1.00008 0.00138334 0)
(1.00039 0.00197599 0)
(1.00112 0.00193639 0)
(1.00121 0.00223045 0)
(1.00094 0.00293119 0)
(1.00137 0.00332678 0)
(1.00215 0.00331192 0)
(1.00259 0.00340482 0)
(1.00252 0.00373662 0)
(1.00242 0.00417158 0)
(1.00257 0.00430352 0)
(1.00003 5.97246e-05 0)
(1.00018 -0.000243697 0)
(0.999884 -0.000402971 0)
(0.999885 -0.000224275 0)
(1.00058 -2.46833e-05 0)
(1.00034 0.000570785 0)
(1.0002 0.000929774 0)
(1.00065 0.000708971 0)
(1.00083 0.000587813 0)
(1.00025 0.00135453 0)
(1.00047 0.00199824 0)
(1.00114 0.00202503 0)
(1.00136 0.00222165 0)
(1.00113 0.00281546 0)
(1.00146 0.00325394 0)
(1.00217 0.00329831 0)
(1.00269 0.00336888 0)
(1.00272 0.00361128 0)
(1.0026 0.00403521 0)
(1.00265 0.00421304 0)
(1.00002 6.61492e-05 0)
(1.00017 -0.000276406 0)
(0.999887 -0.000339596 0)
(0.999911 -0.000107128 0)
(1.00063 -6.08723e-05 0)
(1.00043 0.000464134 0)
(1.00021 0.000963752 0)
(1.00059 0.000873008 0)
(1.00089 0.000695281 0)
(1.00042 0.00132344 0)
(1.00056 0.00198746 0)
(1.00116 0.00209196 0)
(1.00148 0.00223687 0)
(1.00132 0.0027218 0)
(1.00157 0.00316808 0)
(1.00221 0.00326497 0)
(1.00276 0.00333555 0)
(1.0029 0.00350043 0)
(1.00279 0.00387924 0)
(1.00274 0.00411303 0)
(1.00001 7.13217e-05 0)
(1.00016 -0.000290848 0)
(0.999905 -0.000301156 0)
(0.999933 6.7091e-06 0)
(1.00067 -4.4123e-05 0)
(1.00052 0.000367663 0)
(1.00026 0.000949211 0)
(1.00054 0.00101951 0)
(1.00093 0.00082401 0)
(1.00058 0.00130856 0)
(1.00068 0.00194986 0)
(1.00119 0.00213439 0)
(1.00158 0.00225693 0)
(1.00149 0.00265248 0)
(1.00169 0.00308319 0)
(1.00225 0.00321268 0)
(1.00282 0.00329555 0)
(1.00304 0.00340751 0)
(1.00298 0.00371339 0)
(1.00286 0.00398806 0)
(1 7.37581e-05 0)
(1.00016 -0.000286078 0)
(0.999935 -0.000276993 0)
(0.999958 0.000104845 0)
(1.00068 9.39005e-06 0)
(1.00061 0.000298356 0)
(1.00033 0.000897075 0)
(1.00052 0.00113479 0)
(1.00095 0.000962488 0)
(1.00073 0.00131193 0)
(1.00081 0.00190087 0)
(1.00124 0.0021468 0)
(1.00167 0.00227279 0)
(1.00165 0.00259391 0)
(1.00181 0.00300627 0)
(1.00231 0.00315329 0)
(1.00287 0.00324428 0)
(1.00315 0.00332973 0)
(1.00317 0.00355577 0)
(1.00299 0.00383425 0)
(0.999994 7.34573e-05 0)
(1.00016 -0.000262076 0)
(0.999975 -0.000262038 0)
(0.999988 0.000176615 0)
(1.00069 8.94106e-05 0)
(1.0007 0.000267517 0)
(1.00043 0.000824761 0)
(1.00052 0.00120345 0)
(1.00097 0.00110092 0)
(1.00085 0.00133932 0)
(1.00094 0.00185391 0)
(1.0013 0.00213037 0)
(1.00175 0.00227798 0)
(1.00179 0.00253718 0)
(1.00194 0.00292675 0)
(1.00237 0.00309389 0)
(1.00292 0.00318402 0)
(1.00324 0.00325776 0)
(1.00333 0.00341782 0)
(1.00315 0.0036605 0)
(0.999986 7.11336e-05 0)
(1.00016 -0.0002245 0)
(1.00002 -0.000245442 0)
(1.00003 0.000222188 0)
(1.00069 0.000180032 0)
(1.00076 0.000282253 0)
(1.00055 0.000755527 0)
(1.00056 0.00121924 0)
(1.00098 0.00121593 0)
(1.00094 0.00139339 0)
(1.00106 0.00181727 0)
(1.00138 0.00210097 0)
(1.00183 0.0022677 0)
(1.00193 0.00248609 0)
(1.00208 0.00284081 0)
(1.00244 0.00302955 0)
(1.00297 0.00312064 0)
(1.00331 0.00318368 0)
(1.00346 0.00330112 0)
(1.00332 0.00348051 0)
(0.99998 6.76158e-05 0)
(1.00015 -0.000179425 0)
(1.00007 -0.00021952 0)
(1.00007 0.000246685 0)
(1.00069 0.000263969 0)
(1.00082 0.000328331 0)
(1.00066 0.000705528 0)
(1.00062 0.00120467 0)
(1.001 0.00129599 0)
(1.00102 0.0014562 0)
(1.00118 0.00180033 0)
(1.00145 0.00206655 0)
(1.0019 0.00224169 0)
(1.00205 0.00243301 0)
(1.00221 0.0027529 0)
(1.00252 0.00295267 0)
(1.00301 0.0030559 0)
(1.00336 0.00310604 0)
(1.00356 0.00320337 0)
(1.00347 0.00331331 0)
(0.999975 6.39265e-05 0)
(1.00015 -0.000131784 0)
(1.00011 -0.000184841 0)
(1.00012 0.000259565 0)
(1.00069 0.000334209 0)
(1.00085 0.000393357 0)
(1.00077 0.000678014 0)
(1.0007 0.00117511 0)
(1.00104 0.00134437 0)
(1.00109 0.00150761 0)
(1.00128 0.00180258 0)
(1.00153 0.00203621 0)
(1.00198 0.00220966 0)
(1.00217 0.00237318 0)
(1.00234 0.00266376 0)
(1.0026 0.00286425 0)
(1.00306 0.00298403 0)
(1.00341 0.00302403 0)
(1.00362 0.00311237 0)
(1.00359 0.00317099 0)
(0.99997 6.13413e-05 0)
(1.00014 -8.68576e-05 0)
(1.00015 -0.000141714 0)
(1.00018 0.00026899 0)
(1.00069 0.000388011 0)
(1.00088 0.000466755 0)
(1.00087 0.000680105 0)
(1.00079 0.00114021 0)
(1.00109 0.00136325 0)
(1.00116 0.00154582 0)
(1.00137 0.00180821 0)
(1.0016 0.00201725 0)
(1.00204 0.00218017 0)
(1.00227 0.00231316 0)
(1.00247 0.00256863 0)
(1.0027 0.00276601 0)
(1.0031 0.00289981 0)
(1.00345 0.0029363 0)
(1.00367 0.00301654 0)
(1.00367 0.00305276 0)
(0.999967 6.00237e-05 0)
(1.00013 -4.52705e-05 0)
(1.00018 -9.24932e-05 0)
(1.00023 0.000278053 0)
(1.00071 0.000428969 0)
(1.0009 0.000537101 0)
(1.00095 0.000709491 0)
(1.00088 0.0011173 0)
(1.00116 0.00135837 0)
(1.00123 0.00156924 0)
(1.00145 0.00181019 0)
(1.00166 0.00200236 0)
(1.00209 0.00215328 0)
(1.00235 0.00226069 0)
(1.00259 0.00247246 0)
(1.0028 0.00265831 0)
(1.00316 0.00280465 0)
(1.00349 0.00284194 0)
(1.00371 0.00291137 0)
(1.00372 0.00294309 0)
(0.999965 6.02188e-05 0)
(1.00013 -7.95924e-06 0)
(1.00021 -4.02266e-05 0)
(1.00028 0.000290452 0)