/*--------------------------------*- C++ -*----------------------------------*\
| =========                 |                                                 |
| \\      /  F ield         | OpenFOAM: The Open Source CFD Toolbox           |
|  \\    /   O peration     | Version:  2506                                  |
|   \\  /    A nd           | Website:  www.openfoam.com                      |
|    \\/     M anipulation  |                                                 |
\*---------------------------------------------------------------------------*/
FoamFile
{
    version     2.0;
    format      ascii;
    arch        "LSB;label=32;scalar=64";
    class       surfaceScalarField;
    location    "9.05";
    object      phi;
}
// * * * * * * * * * * * * * * * * * * * * * * * * * * * * * * * * * * * * * //

dimensions      [0 3 -1 0 0 0 0];

oriented        oriented;

internalField   nonuniform List<scalar> 
19000
(
1.14661e-06
-7.41507e-07
1.17172e-06
2.86103e-07
1.15736e-06
3.63524e-07
1.14696e-06
8.47003e-07
1.14813e-06
9.636e-08
1.15897e-06
-1.93881e-06
1.22245e-06
6.22439e-08
1.19119e-06
-1.44758e-06
1.23966e-06
1.43458e-06
1.20744e-06
5.05242e-07
1.19587e-06
8.47346e-07
1.19398e-06
6.70581e-07
1.16179e-06
4.3658e-08
1.16549e-06
5.66759e-08
1.15564e-06
-5.00902e-07
1.13804e-06
-6.47856e-07
1.14459e-06
-5.03315e-07
1.09835e-06
-9.20648e-07
1.12944e-06
-2.58076e-07
-9.22922e-07
1.01854e-06
1.20528e-06
-7.22521e-07
1.22918e-06
2.62204e-07
1.21552e-06
3.77177e-07
1.20418e-06
8.58348e-07
1.19783e-06
1.02709e-07
1.20661e-06
-1.94759e-06
1.2727e-06
-3.84932e-09
1.25104e-06
-1.42592e-06
1.28632e-06
1.3993e-06
1.27141e-06
5.2015e-07
1.24145e-06
8.77315e-07
1.25476e-06
6.57269e-07
1.22083e-06
7.75843e-08
1.23025e-06
4.72595e-08
1.21665e-06
-4.87305e-07
1.21227e-06
-6.43479e-07
1.19801e-06
-4.89052e-07
1.177e-06
-8.9964e-07
1.17895e-06
-2.60028e-07
-8.56296e-07
1.11233e-06
1.26674e-06
-7.06477e-07
1.29143e-06
2.37511e-07
1.27958e-06
3.89028e-07
1.26464e-06
8.73293e-07
1.25191e-06
1.15438e-07
1.25701e-06
-1.95269e-06
1.32373e-06
-7.05617e-08
1.31022e-06
-1.41242e-06
1.33875e-06
1.37078e-06
1.33456e-06
5.24339e-07
1.30165e-06
9.1022e-07
1.31032e-06
6.48604e-07
1.29285e-06
9.50478e-08
1.29143e-06
4.86888e-08
1.28243e-06
-4.78309e-07
1.27079e-06
-6.31839e-07
1.26057e-06
-4.78831e-07
1.2407e-06
-8.79769e-07
1.24583e-06
-2.65156e-07
-8.07382e-07
1.19691e-06
1.33099e-06
-6.93362e-07
1.35581e-06
2.12694e-07
1.34707e-06
3.97759e-07
1.32866e-06
8.91707e-07
1.31097e-06
1.33126e-07
1.31132e-06
-1.95304e-06
1.37566e-06
-1.34906e-07
1.37248e-06
-1.40924e-06
1.39716e-06
1.34609e-06
1.39898e-06
5.2252e-07
1.37353e-06
9.3567e-07
1.37542e-06
6.46716e-07
1.36566e-06
1.04811e-07
1.36356e-06
5.07818e-08
1.3499e-06
-4.6465e-07
1.3383e-06
-6.2023e-07
1.32548e-06
-4.66012e-07
1.30309e-06
-8.57382e-07
1.30733e-06
-2.69397e-07
-7.56389e-07
1.25634e-06
1.39799e-06
-6.82999e-07
1.4209e-06
1.89782e-07
1.41555e-06
4.03111e-07
1.39662e-06
9.1064e-07
1.37633e-06
1.53411e-07
1.37071e-06
-1.94741e-06
1.42981e-06
-1.94006e-07
1.43585e-06
-1.41528e-06
1.46177e-06
1.32017e-06
1.46616e-06
5.18133e-07
1.45081e-06
9.51022e-07
1.44849e-06
6.49031e-07
1.44012e-06
1.13179e-07
1.43694e-06
5.3966e-08
1.41976e-06
-4.47472e-07
1.40668e-06
-6.07145e-07
1.39369e-06
-4.53026e-07
1.36872e-06
-8.32417e-07
1.37444e-06
-2.75109e-07
-7.05239e-07
1.32329e-06
1.46763e-06
-6.7495e-07
1.48645e-06
1.70963e-07
1.484e-06
4.05555e-07
1.46902e-06
9.25623e-07
1.44821e-06
1.74225e-07
1.43581e-06
-1.93502e-06
1.48716e-06
-2.45351e-07
1.49928e-06
-1.4274e-06
1.53065e-06
1.2888e-06
1.53636e-06
5.12421e-07
1.52949e-06
9.57893e-07
1.52492e-06
6.53607e-07
1.51587e-06
1.22223e-07
1.51123e-06
5.86112e-08
1.49208e-06
-4.28328e-07
1.47722e-06
-5.92283e-07
1.46421e-06
-4.40014e-07
1.43681e-06
-8.05014e-07
1.44316e-06
-2.81466e-07
-6.54736e-07
1.39266e-06
1.5396e-06
-6.68335e-07
1.5532e-06
1.57369e-07
1.5532e-06
4.05554e-07
1.54596e-06
9.32855e-07
1.52596e-06
1.94227e-07
1.50696e-06
-1.91601e-06
1.54827e-06
-2.86662e-07
1.56274e-06
-1.44187e-06
1.60216e-06
1.24938e-06
1.60861e-06
5.05972e-07
1.60807e-06
9.58433e-07
1.60229e-06
6.59384e-07
1.59272e-06
1.31794e-07
1.58718e-06
6.41514e-08
1.56734e-06
-4.08486e-07
1.55108e-06
-5.76025e-07
1.53833e-06
-4.2726e-07
1.5086e-06
-7.75285e-07
1.51499e-06
-2.87852e-07
-6.05282e-07
1.46553e-06
1.61378e-06
-6.61986e-07
1.62247e-06
1.48683e-07
1.62482e-06
4.032e-07
1.62699e-06
9.30689e-07
1.60851e-06
2.12705e-07
1.58402e-06
-1.89153e-06
1.61332e-06
-3.15958e-07
1.62669e-06
-1.45525e-06
1.67496e-06
1.20111e-06
1.68124e-06
4.99688e-07
1.68592e-06
9.5376e-07
1.67993e-06
6.65368e-07
1.67081e-06
1.40916e-07
1.66521e-06
6.97472e-08
1.64551e-06
-3.88779e-07
1.62817e-06
-5.58689e-07
1.61607e-06
-4.15156e-07
1.58439e-06
-7.43607e-07
1.59028e-06
-2.93745e-07
-5.56899e-07
1.5419e-06
1.69043e-06
-6.54844e-07
1.69557e-06
1.43542e-07
1.7004e-06
3.98377e-07
1.71132e-06
9.1976e-07
1.69471e-06
2.29317e-07
1.66626e-06
-1.86308e-06
1.68262e-06
-3.32314e-07
1.69197e-06
-1.4646e-06
1.74779e-06
1.14529e-06
1.75291e-06
4.94574e-07
1.76293e-06
9.43738e-07
1.75804e-06
6.70252e-07
1.75062e-06
1.48342e-07
1.7457e-06
7.46644e-08
1.72675e-06
-3.69824e-07
1.70862e-06
-5.40561e-07
1.6976e-06
-4.04138e-07
1.66449e-06
-7.10498e-07
1.6695e-06
-2.98754e-07
-5.09617e-07
1.62222e-06
1.77017e-06
-6.46294e-07
1.77344e-06
1.40273e-07
1.78072e-06
3.91099e-07
1.79836e-06
9.0212e-07
1.78375e-06
2.43929e-07
1.75261e-06
-1.83194e-06
1.757e-06
-3.36699e-07
1.75994e-06
-1.46754e-06
1.82016e-06
1.08506e-06
1.82365e-06
4.91087e-07
1.84e-06
9.27384e-07
1.83756e-06
6.72697e-07
1.83279e-06
1.53105e-07
1.82893e-06
7.85239e-08
1.81092e-06
-3.51814e-07
1.79217e-06
-5.21808e-07
1.78246e-06
-3.94425e-07
1.7486e-06
-6.76637e-07
1.75249e-06
-3.02649e-07
-4.63903e-07
1.70678e-06
1.85369e-06
-6.3624e-07
1.85647e-06
1.37493e-07
1.86591e-06
3.81668e-07
1.88787e-06
8.80157e-07
1.87524e-06
2.5656e-07
1.84213e-06
-1.79883e-06
1.83751e-06
-3.32083e-07
1.83249e-06
-1.46251e-06
1.89333e-06
1.02422e-06
1.8956e-06
4.88823e-07
1.91912e-06
9.03861e-07
1.91987e-06
6.71948e-07
1.91797e-06
1.55007e-07
1.91508e-06
8.14145e-08
1.89796e-06
-3.34694e-07
1.87867e-06
-5.02517e-07
1.87016e-06
-3.85921e-07
1.83632e-06
-6.42794e-07
1.83894e-06
-3.05271e-07
-4.2063e-07
1.79567e-06
1.94158e-06
-6.24977e-07
1.94466e-06
1.34411e-07
1.95567e-06
3.70651e-07
1.98002e-06
8.55815e-07
1.96927e-06
2.67301e-07
1.93436e-06
-1.76392e-06
1.92479e-06
-3.22507e-07
1.91154e-06
-1.44927e-06
1.97022e-06
9.65538e-07
1.97221e-06
4.86831e-07
2.00255e-06
8.73525e-07
2.00619e-06
6.68305e-07
2.00655e-06
1.54648e-07
2.00413e-06
8.38301e-08
1.98781e-06
-3.18373e-07
1.96814e-06
-4.82847e-07
1.9604e-06
-3.78183e-07
1.92733e-06
-6.0972e-07
1.92856e-06
-3.06497e-07
-3.8078e-07
1.88871e-06
2.03419e-06
-6.12975e-07
2.03777e-06
1.30831e-07
2.04962e-06
3.58797e-07
2.07514e-06
8.30293e-07
2.06627e-06
2.76178e-07
2.0295e-06
-1.72715e-06
2.01865e-06
-3.11657e-07
1.99817e-06
-1.42879e-06
2.05375e-06
9.09952e-07
2.0563e-06
4.8428e-07
2.09162e-06
8.38206e-07
2.09692e-06
6.63006e-07
2.09865e-06
1.52924e-07
2.09615e-06
8.63308e-08
2.08065e-06
-3.02878e-07
2.06098e-06
-4.63171e-07
2.05334e-06
-3.70543e-07
2.02165e-06
-5.78036e-07
2.02137e-06
-3.0622e-07
-3.4506e-07
1.98565e-06
2.13171e-06
-6.00683e-07
2.13558e-06
1.26962e-07
2.14743e-06
3.46947e-07
2.17361e-06
8.04109e-07
2.16675e-06
2.83041e-07
2.12818e-06
-1.68858e-06
2.11834e-06
-3.01813e-07
2.09217e-06
-1.40262e-06
2.14515e-06
8.56979e-07
2.14848e-06
4.80946e-07
2.18627e-06
8.0042e-07
2.19173e-06
6.57537e-07
2.19429e-06
1.50373e-07
2.19148e-06
8.9134e-08
2.17689e-06
-2.88285e-07
2.15781e-06
-4.44089e-07
2.14957e-06
-3.62306e-07
2.11964e-06
-5.48109e-07
2.11787e-06
-3.04442e-07
-3.13627e-07
2.08643e-06
2.23419e-06
-5.88389e-07
2.23802e-06
1.23139e-07
2.24907e-06
3.35896e-07
2.27582e-06
7.77355e-07
2.27124e-06
2.87628e-07
2.23116e-06
-1.6485e-06
2.22306e-06
-2.93719e-07
2.19243e-06
-1.37199e-06
2.24354e-06
8.05872e-07
2.24724e-06
4.77243e-07
2.28552e-06
7.62141e-07
2.29022e-06
6.52835e-07
2.29366e-06
1.46931e-07
2.29087e-06
9.19255e-08
2.27713e-06
-2.74547e-07
2.25931e-06
-4.26262e-07
2.24994e-06
-3.5294e-07
2.22185e-06
-5.20024e-07
2.21876e-06
-3.01347e-07
-2.86073e-07
2.19121e-06
2.34165e-06
-5.76168e-07
2.34522e-06
1.19575e-07
2.35489e-06
3.26224e-07
2.3823e-06
7.49942e-07
2.38015e-06
2.89781e-07
2.33897e-06
-1.60732e-06
2.33242e-06
-2.87172e-07
2.29778e-06
-1.33735e-06
2.34727e-06
7.56383e-07
2.35063e-06
4.73884e-07
2.38866e-06
7.24113e-07
2.39255e-06
6.48944e-07
2.39727e-06
1.42207e-07
2.39521e-06
9.39924e-08
2.38202e-06
-2.61363e-07
2.36597e-06
-4.10213e-07
2.3552e-06
-3.42168e-07
2.32876e-06
-4.93587e-07
2.32473e-06
-2.97316e-07
-2.6167e-07
2.30033e-06
2.45415e-06
-5.63925e-07
2.45747e-06
1.16256e-07
2.46549e-06
3.18204e-07
2.49368e-06
7.21756e-07
2.49383e-06
2.89624e-07
2.4519e-06
-1.56539e-06
2.44647e-06
-2.81733e-07
2.40776e-06
-1.29864e-06
2.45545e-06
7.08691e-07
2.45783e-06
4.71501e-07
2.49588e-06
6.86064e-07
2.49958e-06
6.45242e-07
2.50582e-06
1.35971e-07
2.50526e-06
9.45476e-08
2.4921e-06
-2.48206e-07
2.47808e-06
-3.96188e-07
2.4659e-06
-3.29987e-07
2.44069e-06
-4.68377e-07
2.4362e-06
-2.92822e-07
-2.39716e-07
2.41424e-06
2.57186e-06
-5.51486e-07
2.57515e-06
1.12965e-07
2.58151e-06
3.11843e-07
2.61054e-06
6.92726e-07
2.61259e-06
2.87575e-07
2.5701e-06
-1.5229e-06
2.56547e-06
-2.77102e-07
2.52261e-06
-1.25578e-06
2.5684e-06
6.629e-07
2.56946e-06
4.70444e-07
2.60811e-06
6.47416e-07
2.61242e-06
6.4093e-07
2.61996e-06
1.28433e-07
2.62152e-06
9.2988e-08
2.60779e-06
-2.34478e-07
2.59573e-06
-3.84134e-07
2.58239e-06
-3.16647e-07
2.55783e-06
-4.43817e-07
2.55335e-06
-2.88339e-07
-2.19742e-07
2.53338e-06
2.69501e-06
-5.38671e-07
2.69859e-06
1.09385e-07
2.70343e-06
3.0701e-07
2.73332e-06
6.62835e-07
2.7367e-06
2.84192e-07
2.69369e-06
-1.47989e-06
2.68976e-06
-2.73174e-07
2.64298e-06
-1.209e-06
2.68716e-06
6.18721e-07
2.68683e-06
4.70777e-07
2.72642e-06
6.07825e-07
2.73197e-06
6.35374e-07
2.74018e-06
1.20226e-07
2.74421e-06
8.89587e-08
2.7294e-06
-2.19668e-07
2.719e-06
-3.73736e-07
2.70498e-06
-3.02622e-07
2.68042e-06
-4.19257e-07
2.67628e-06
-2.84201e-07
-2.01624e-07
2.65816e-06
2.82393e-06
-5.2533e-07
2.82813e-06
1.05187e-07
2.8316e-06
3.03533e-07
2.86232e-06
6.32121e-07
2.86649e-06
2.80016e-07
2.8229e-06
-1.4363e-06
2.81968e-06
-2.6995e-07
2.76947e-06
-1.1588e-06
2.81265e-06
5.75542e-07
2.81107e-06
4.72359e-07
2.85154e-06
5.67346e-07
2.85877e-06
6.28152e-07
2.8668e-06
1.12197e-07
2.87343e-06
8.23215e-08
2.85724e-06
-2.03478e-07
2.84797e-06
-3.6446e-07
2.83391e-06
-2.88561e-07
2.80874e-06
-3.94094e-07
2.80504e-06
-2.80499e-07
-1.85529e-07
2.78895e-06
2.95891e-06
-5.11344e-07
2.96401e-06
1.00084e-07
2.96629e-06
3.01254e-07
2.99776e-06
6.00657e-07
3.00231e-06
2.75466e-07
2.95803e-06
-1.39202e-06
2.95555e-06
-2.67478e-07
2.90252e-06
-1.10576e-06
2.9454e-06
5.32667e-07
2.94283e-06
4.74928e-07
2.98383e-06
5.26346e-07
2.99304e-06
6.1894e-07
2.99999e-06
1.05244e-07
3.00923e-06
7.30834e-08
2.99163e-06
-1.85875e-07
2.98276e-06
-3.55592e-07
2.96943e-06
-2.75229e-07
2.94323e-06
-3.67892e-07
2.93974e-06
-2.77006e-07
-1.71821e-07
2.92603e-06
3.10028e-06
-4.96621e-07
3.10651e-06
9.38529e-08
3.10774e-06
3.00031e-07
3.13985e-06
5.68543e-07
3.14452e-06
2.70801e-07
3.09941e-06
-1.34691e-06
3.09775e-06
-2.65822e-07
3.04246e-06
-1.05047e-06
3.0856e-06
4.89523e-07
3.0824e-06
4.78129e-07
3.12337e-06
4.8538e-07
3.13489e-06
6.07419e-07
3.13997e-06
1.00158e-07
3.15164e-06
6.14154e-08
3.1329e-06
-1.67134e-07
3.12359e-06
-3.4628e-07
3.11171e-06
-2.63355e-07
3.08444e-06
-3.40619e-07
3.08049e-06
-2.73054e-07
-1.6098e-07
3.06965e-06
3.24838e-06
-4.81096e-07
3.25589e-06
8.63487e-08
3.25619e-06
2.9973e-07
3.28884e-06
5.35895e-07
3.29351e-06
2.66124e-07
3.24741e-06
-1.30081e-06
3.24665e-06
-2.65056e-07
3.18955e-06
-9.93375e-07
3.23331e-06
4.45766e-07
3.22989e-06
4.81544e-07
3.27017e-06
4.45106e-07
3.28436e-06
5.93223e-07
3.28694e-06
9.75748e-08
3.30072e-06
4.76435e-08
3.28139e-06
-1.47807e-07
3.27072e-06
-3.35615e-07
3.26088e-06
-2.53513e-07
3.23294e-06
-3.12679e-07
3.22758e-06
-2.67688e-07
-1.53369e-07
3.21996e-06
3.40357e-06
-4.6473e-07
3.41241e-06
7.75071e-08
3.41191e-06
3.00229e-07
3.44495e-06
5.0285e-07
3.44969e-06
2.61391e-07
3.40243e-06
-1.25355e-06
3.40262e-06
-2.6525e-07
3.34409e-06
-9.34844e-07
3.38854e-06
4.01316e-07
3.38539e-06
4.84693e-07
3.42425e-06
4.0625e-07
3.44152e-06
5.75952e-07
3.44119e-06
9.79089e-08
3.45657e-06
3.22546e-08
3.43742e-06
-1.28652e-07
3.42459e-06
-3.22782e-07
3.41702e-06
-2.45945e-07
3.38922e-06
-2.84885e-07
3.38148e-06
-2.59942e-07
-1.48958e-07
3.37707e-06
3.5662e-06
-4.47518e-07
3.57636e-06
6.73466e-08
3.57518e-06
3.0141e-07
3.60847e-06
4.6956e-07
3.61342e-06
2.56438e-07
3.56484e-06
-1.20496e-06
3.56605e-06
-2.66466e-07
3.5064e-06
-8.75187e-07
3.55136e-06
3.5635e-07
3.54901e-06
4.87042e-07
3.58572e-06
3.69549e-07
3.60641e-06
5.55253e-07
3.60304e-06
1.01279e-07
3.61938e-06
1.59175e-08
3.60129e-06
-1.10557e-07
3.5857e-06
-3.07193e-07
3.58024e-06
-2.40492e-07
3.55358e-06
-2.58224e-07
3.5429e-06
-2.49256e-07
-1.47122e-07
3.54106e-06
3.73667e-06
-4.29484e-07
3.74806e-06
5.59599e-08
3.74631e-06
3.03155e-07
3.77967e-06
4.36205e-07
3.78509e-06
2.51014e-07
3.73503e-06
-1.1549e-06
3.73731e-06
-2.68745e-07
3.67683e-06
-8.14709e-07
3.72192e-06
3.11262e-07
3.72094e-06
4.88022e-07
3.75477e-06
3.35714e-07
3.77913e-06
5.30893e-07
3.77294e-06
1.07467e-07
3.78939e-06
-5.29077e-10
3.77325e-06
-9.44188e-08
3.75465e-06
-2.88592e-07
3.75077e-06
-2.36612e-07
3.72624e-06
-2.33694e-07
3.71251e-06
-2.35524e-07
-1.46819e-07
3.71221e-06
3.91538e-06
-4.10676e-07
3.92784e-06
4.34972e-08
3.92566e-06
3.05336e-07
3.95888e-06
4.0299e-07
3.96506e-06
2.44828e-07
3.91339e-06
-1.10322e-06
3.91673e-06
-2.72089e-07
3.85579e-06
-7.53764e-07
3.90043e-06
2.66617e-07
3.9014e-06
4.87049e-07
3.93175e-06
3.05365e-07
3.95979e-06
5.02855e-07
3.95132e-06
1.15937e-07
3.96694e-06
-1.61496e-08
3.95353e-06
-8.10105e-08
3.93209e-06
-2.67151e-07
3.92886e-06
-2.33383e-07
3.90734e-06
-2.12174e-07
3.89094e-06
-2.19121e-07
-1.46815e-07
3.89093e-06
4.10274e-06
-3.91168e-07
4.11609e-06
3.0145e-08
4.11362e-06
3.07806e-07
4.14645e-06
3.70161e-07
4.1537e-06
2.37577e-07
4.10032e-06
-1.04983e-06
4.10468e-06
-2.76451e-07
4.0437e-06
-6.92792e-07
4.08723e-06
2.23091e-07
4.09075e-06
4.83533e-07
4.11709e-06
2.79024e-07
4.14857e-06
4.71377e-07
4.13864e-06
1.25867e-07
4.15244e-06
-2.99489e-08
4.14228e-06
-7.08603e-08
4.11862e-06
-2.43483e-07
4.11488e-06
-2.2965e-07
4.09696e-06
-1.94256e-07
4.07876e-06
-2.00917e-07
-1.45792e-07
4.07774e-06
4.29918e-06
-3.71041e-07
4.31322e-06
1.61017e-08
4.31065e-06
3.10378e-07
4.34279e-06
3.38016e-07
4.35138e-06
2.28983e-07
4.29625e-06
-9.94693e-07
4.3015e-06
-2.81705e-07
4.24105e-06
-6.32339e-07
4.28273e-06
1.81412e-07
4.28933e-06
4.76926e-07
4.31132e-06
2.57032e-07
4.34573e-06
4.36972e-07
4.33529e-06
1.36309e-07
4.34634e-06
-4.10061e-08
4.33964e-06
-6.41526e-08
4.31467e-06
-2.1852e-07
4.30932e-06
-2.24296e-07
4.29519e-06
-1.80126e-07
4.27634e-06
-1.82069e-07
-1.42699e-07
4.27325e-06
4.50512e-06
-3.50388e-07
4.51966e-06
1.56043e-09
4.51722e-06
3.12824e-07
4.54832e-06
3.06913e-07
4.55849e-06
2.18816e-07
4.50164e-06
-9.37845e-07
4.50758e-06
-2.87647e-07
4.44826e-06
-5.73024e-07
4.48738e-06
1.42294e-07
4.49754e-06
4.66767e-07
4.51509e-06
2.39485e-07
4.55162e-06
4.00436e-07
4.54167e-06
1.4626e-07
4.54921e-06
-4.85437e-08
4.54578e-06
-6.07213e-08
4.52059e-06
-1.93332e-07
4.51282e-06
-2.16525e-07
4.50216e-06
-1.69469e-07
4.48386e-06
-1.63761e-07
-1.37098e-07
4.47826e-06
4.72103e-06
-3.29299e-07
4.73589e-06
-1.32994e-08
4.73384e-06
3.14866e-07
4.7635e-06
2.77259e-07
4.7754e-06
2.06911e-07
4.71704e-06
-8.79486e-07
4.7233e-06
-2.93906e-07
4.66583e-06
-5.15546e-07
4.7017e-06
1.06419e-07
4.71575e-06
4.52719e-07
4.72902e-06
2.26212e-07
4.76666e-06
3.62792e-07
4.75823e-06
1.54697e-07
4.76164e-06
-5.19558e-08
4.76105e-06
-6.01306e-08
4.73672e-06
-1.69002e-07
4.7262e-06
-2.06003e-07
4.71818e-06
-1.61454e-07
4.70153e-06
-1.47106e-07
-1.29031e-07
4.69346e-06
4.94737e-06
-3.0787e-07
4.96237e-06
-2.83033e-08
4.96105e-06
3.16184e-07
4.98882e-06
2.49492e-07
5.00255e-06
1.93184e-07
4.94303e-06
-8.19969e-07
4.94911e-06
-2.99982e-07
4.89419e-06
-4.60632e-07
4.92622e-06
7.43896e-08
4.9443e-06
4.34642e-07
4.95376e-06
2.16751e-07
4.99136e-06
3.25196e-07
4.98529e-06
1.60762e-07
4.98442e-06
-5.10849e-08
4.98586e-06
-6.15736e-08
4.96348e-06
-1.46618e-07
4.95033e-06
-1.92853e-07
4.94377e-06
-1.54889e-07
4.92951e-06
-1.32853e-07
-1.1909e-07
4.91957e-06
5.18465e-06
-2.862e-07
5.19961e-06
-4.32693e-08
5.19934e-06
3.16454e-07
5.22481e-06
2.24023e-07
5.24034e-06
1.77651e-07
5.18014e-06
-7.59768e-07
5.18548e-06
-3.0532e-07
5.13382e-06
-4.08966e-07
5.16155e-06
4.66585e-08
5.18352e-06
4.12667e-07
5.18987e-06
2.104e-07
5.22631e-06
2.88762e-07
5.2232e-06
1.63866e-07
5.21847e-06
-4.63567e-08
5.22085e-06
-6.39453e-08
5.20117e-06
-1.26939e-07
5.18592e-06
-1.77602e-07
5.17962e-06
-1.48598e-07
5.16802e-06
-1.21249e-07
-1.08236e-07
5.15717e-06
5.43338e-06
-2.64395e-07
5.44812e-06
-5.80031e-08
5.4492e-06
3.15374e-07
5.47202e-06
2.01199e-07
5.48923e-06
1.60437e-07
5.42895e-06
-6.99483e-07
5.43296e-06
-3.09333e-07
5.38516e-06
-3.6116e-07
5.4083e-06
2.35128e-08
5.43376e-06
3.87208e-07
5.4379e-06
2.06259e-07
5.47215e-06
2.5451e-07
5.47235e-06
1.63674e-07
5.46452e-06
-3.85354e-08
5.46671e-06
-6.6126e-08
5.45008e-06
-1.10316e-07
5.43353e-06
-1.61047e-07
5.4266e-06
-1.41671e-07
5.41736e-06
-1.12007e-07
-9.74796e-08
5.4066e-06
5.69414e-06
-2.42575e-07
5.70841e-06
-7.22754e-08
5.71109e-06
3.127e-07
5.73104e-06
1.81245e-07
5.74971e-06
1.41764e-07
5.69002e-06
-6.39787e-07
5.69214e-06
-3.1146e-07
5.64869e-06
-3.17703e-07
5.66716e-06
5.04539e-09
5.69545e-06
3.5891e-07
5.69833e-06
2.03382e-07
5.72962e-06
2.23217e-07
5.73313e-06
1.60172e-07
5.72312e-06
-2.85344e-08
5.72419e-06
-6.7187e-08
5.71063e-06
-9.67649e-08
5.69362e-06
-1.44031e-07
5.68555e-06
-1.33606e-07
5.67804e-06
-1.0449e-07
-8.76721e-08
5.66823e-06
5.9675e-06
-2.20879e-07
5.98106e-06
-8.58352e-08
5.98547e-06
3.08282e-07
6.00253e-06
1.64191e-07
6.02231e-06
1.21983e-07
5.96389e-06
-5.8137e-07
5.96365e-06
-3.11221e-07
5.92489e-06
-2.78941e-07
5.9388e-06
-8.87017e-09
5.9691e-06
3.28613e-07
5.97167e-06
2.00811e-07
5.99944e-06
1.95452e-07
6.006e-06
1.53615e-07
5.99479e-06
-1.73265e-08
5.99412e-06
-6.65181e-08
5.98329e-06
-8.59375e-08
5.96661e-06
-1.27346e-07
5.95731e-06
-1.24309e-07
5.9507e-06
-9.7881e-08
-7.9311e-08
5.94234e-06
6.25407e-06
-1.99458e-07
6.26664e-06
-9.84053e-08
6.2729e-06
3.02021e-07
6.28718e-06
1.4991e-07
6.30762e-06
1.01542e-07
6.25113e-06
-5.24879e-07
6.24814e-06
-3.08233e-07
6.21426e-06
-2.45059e-07
6.22394e-06
-1.85558e-08
6.25534e-06
2.97218e-07
6.2584e-06
1.97748e-07
6.28238e-06
1.7147e-07
6.29143e-06
1.44571e-07
6.28004e-06
-5.94132e-09
6.27731e-06
-6.37901e-08
6.26864e-06
-7.72603e-08
6.25291e-06
-1.11621e-07
6.2426e-06
-1.13999e-07
6.2362e-06
-9.14768e-08
-7.23748e-08
6.22926e-06
6.5545e-06
-1.78485e-07
6.56578e-06
-1.09692e-07
6.57403e-06
2.93773e-07
6.58568e-06
1.3826e-07
6.60632e-06
8.09081e-08
6.55233e-06
-4.70889e-07
6.54631e-06
-3.02218e-07
6.51729e-06
-2.16039e-07
6.52332e-06
-2.45873e-08
6.55485e-06
2.65695e-07
6.55903e-06
1.93569e-07
6.57921e-06
1.51286e-07
6.59005e-06
1.33731e-07
6.5793e-06
4.80522e-09
6.57454e-06
-5.90266e-08
6.56737e-06
-7.00949e-08
6.55298e-06
-9.72283e-08
6.54209e-06
-1.03105e-07
6.53544e-06
-8.48272e-08
-6.64744e-08
6.52954e-06
6.86945e-06
-1.5814e-07
6.87914e-06
-1.19391e-07
6.88958e-06
2.83338e-07
6.8987e-06
1.29141e-07
6.91905e-06
6.05549e-08
6.86816e-06
-4.19997e-07
6.85888e-06
-2.92938e-07
6.83452e-06
-1.91678e-07
6.83765e-06
-2.77202e-08
6.8684e-06
2.34949e-07
6.87403e-06
1.87937e-07
6.89066e-06
1.34651e-07
6.90256e-06
1.21831e-07
6.89303e-06
1.43421e-08
6.88649e-06
-5.24941e-08
6.88024e-06
-6.38387e-08
6.86742e-06
-8.44115e-08
6.85629e-06
-9.19776e-08
6.84932e-06
-7.78566e-08
-6.10649e-08
6.84391e-06
7.19961e-06
-1.38617e-07
7.2074e-06
-1.27173e-07
7.22023e-06
2.70507e-07
7.22689e-06
1.22479e-07
7.24651e-06
4.09363e-08
7.19929e-06
-3.7278e-07
7.18669e-06
-2.80337e-07
7.1665e-06
-1.71489e-07
7.16758e-06
-2.88033e-08
7.19682e-06
2.05709e-07
7.20398e-06
1.8078e-07
7.21745e-06
1.21183e-07
7.22969e-06
1.09588e-07
7.22172e-06
2.23149e-08
7.21384e-06
-4.46174e-08
7.20802e-06
-5.80201e-08
7.19682e-06
-7.32085e-08
7.18581e-06
-8.0967e-08
7.17859e-06
-7.06312e-08
-5.57532e-08
7.17327e-06
7.54572e-06
-1.20106e-07
7.55127e-06
-1.32727e-07
7.56663e-06
2.55146e-07
7.57098e-06
1.1813e-07
7.58939e-06
2.25277e-08
7.54637e-06
-3.29767e-07
7.53067e-06
-2.6463e-07
7.51393e-06
-1.54749e-07
7.51369e-06
-2.85706e-08
7.5409e-06
1.78508e-07
7.54957e-06
1.72102e-07
7.56028e-06
1.10478e-07
7.57216e-06
9.77035e-08
7.5659e-06
2.85772e-08
7.55729e-06
-3.60041e-08
7.5515e-06
-5.22316e-08
7.54185e-06
-6.35576e-08
7.53128e-06
-7.03999e-08
7.52387e-06
-6.322e-08
-5.04121e-08
7.51853e-06
7.9085e-06
-1.02792e-07
7.91154e-06
-1.35773e-07
7.92944e-06
2.37246e-07
7.93176e-06
1.15819e-07
7.94844e-06
5.84747e-09
7.91007e-06
-2.914e-07
7.8917e-06
-2.46262e-07
7.8775e-06
-1.40549e-07
7.87658e-06
-2.76456e-08
7.90147e-06
1.53612e-07
7.91138e-06
1.62188e-07
7.91981e-06
1.02058e-07
7.93073e-06
8.67788e-08
7.92619e-06
3.31182e-08
7.91739e-06
-2.72004e-08
7.91142e-06
-4.62703e-08
7.90318e-06
-5.53113e-08
7.89331e-06
-6.05278e-08
7.88587e-06
-5.57799e-08
-4.50378e-08
7.88049e-06
8.28872e-06
-8.68261e-08
8.28902e-06
-1.36077e-07
8.30926e-06
2.17008e-07
8.3101e-06
1.14973e-07
8.32446e-06
-8.50889e-09
8.29104e-06
-2.57976e-07
8.2706e-06
-2.25824e-07
8.25801e-06
-1.27962e-07
8.25689e-06
-2.65214e-08
8.27927e-06
1.31233e-07
8.29006e-06
1.51396e-07
8.29669e-06
9.5423e-08
8.30606e-06
7.74089e-08
8.30324e-06
3.59413e-08
8.29472e-06
-1.86832e-08
8.28856e-06
-4.01102e-08
8.28146e-06
-4.82103e-08
8.27261e-06
-5.16812e-08
8.26528e-06
-4.84477e-08
-3.95985e-08
8.25984e-06
8.68715e-06
-7.23169e-08
8.68449e-06
-1.33417e-07
8.70669e-06
1.94815e-07
8.70693e-06
1.14728e-07
8.71833e-06
-1.99113e-08
8.68967e-06
-2.29315e-07
8.66811e-06
-2.04265e-07
8.65636e-06
-1.16208e-07
8.65517e-06
-2.53298e-08
8.67489e-06
1.1151e-07
8.68615e-06
1.40134e-07
8.69124e-06
9.03394e-08
8.69914e-06
6.95022e-08
8.69775e-06
3.73389e-08
8.68998e-06
-1.09197e-08
8.68368e-06
-3.38115e-08
8.67753e-06
-4.20597e-08
8.66986e-06
-4.40113e-08
8.66282e-06
-4.14088e-08
-3.41945e-08
8.65742e-06
9.10461e-06
-5.93105e-08
9.0991e-06
-1.27908e-07
9.12243e-06
1.71488e-07
9.12325e-06
1.13906e-07
9.13101e-06
-2.76667e-08
9.10653e-06
-2.04839e-07
9.08494e-06
-1.8267e-07
9.07338e-06
-1.04649e-07
9.07182e-06
-2.37743e-08
9.08877e-06
9.45594e-08
9.1e-06
1.28905e-07
9.10416e-06
8.61854e-08
9.11083e-06
6.28252e-08
9.11075e-06
3.74199e-08
9.10399e-06
-4.15693e-09
9.09777e-06
-2.75935e-08
9.09223e-06
-3.65145e-08
9.08573e-06
-3.75164e-08
9.07932e-06
-3.49982e-08
-2.88239e-08
9.07395e-06
9.54194e-06
-4.77859e-08
9.53408e-06
-1.2005e-07
9.55741e-06
1.48154e-07
9.56e-06
1.11319e-07
9.56371e-06
-3.13827e-08
9.54236e-06
-1.83488e-07
9.52157e-06
-1.61873e-07
9.50984e-06
-9.29228e-08
9.50747e-06
-2.14066e-08
9.52162e-06
8.04122e-08
9.53267e-06
1.17858e-07
9.53664e-06
8.22159e-08
9.54254e-06
5.69176e-08
9.54339e-06
3.65707e-08
9.53775e-06
1.48289e-09
9.53178e-06
-2.16156e-08
9.5266e-06
-3.13372e-08
9.52106e-06
-3.19787e-08
9.51564e-06
-2.95825e-08
-2.36337e-08
9.51045e-06
1e-05
-3.76667e-08
9.99056e-06
-1.10598e-07
1.00127e-05
1.26018e-07
1.00178e-05
1.06266e-07
1.00178e-05
-3.14107e-08
9.99807e-06
-1.63779e-07
9.97835e-06
-1.42147e-07
9.96672e-06
-8.12956e-08
9.96354e-06
-1.82252e-08
9.97515e-06
6.88019e-08
9.98603e-06
1.06974e-07
9.99035e-06
7.78979e-08
9.99549e-06
5.17771e-08
9.99694e-06
3.51158e-08
9.99234e-06
6.09128e-09
9.98672e-06
-1.60017e-08
9.98185e-06
-2.64672e-08
9.97696e-06
-2.7085e-08
9.97253e-06
-2.51566e-08
-1.89507e-08
9.96785e-06
1.04798e-05
-2.88284e-08
1.04696e-05
-1.00358e-07
1.04895e-05
1.06032e-07
1.04971e-05
9.87413e-08
1.04943e-05
-2.86589e-08
1.04751e-05
-1.44572e-07
1.04565e-05
-1.23569e-07
1.04454e-05
-7.01122e-08
1.04418e-05
-1.46763e-08
1.04512e-05
5.94376e-08
1.04618e-05
9.63573e-08
1.04662e-05
7.34868e-08
1.04707e-05
4.72932e-08
1.04726e-05
3.324e-08
1.0469e-05
9.68489e-09
1.04637e-05
-1.07148e-08
1.04591e-05
-2.18953e-08
1.04547e-05
-2.26788e-08
1.04509e-05
-2.13804e-08
-1.52046e-08
1.04472e-05
1.09823e-05
-2.1108e-08
1.09719e-05
-9.00067e-08
1.09894e-05
8.85652e-08
1.09986e-05
8.95374e-08
1.09947e-05
-2.47285e-08
1.09755e-05
-1.25421e-07
1.09578e-05
-1.05866e-07
1.09471e-05
-5.93912e-08
1.09435e-05
-1.11043e-08
1.09511e-05
5.18574e-08
1.0961e-05
8.64815e-08
1.09654e-05
6.91317e-08
1.09691e-05
4.35078e-08
1.09713e-05
3.10522e-08
1.09687e-05
1.23304e-08
1.09637e-05
-5.73708e-09
1.09595e-05
-1.76868e-08
1.09554e-05
-1.86114e-08
1.09521e-05
-1.80107e-08
-1.24035e-08
1.09493e-05
1.15086e-05
-1.43393e-08
1.14986e-05
-8.00401e-08
1.15135e-05
7.37085e-08
1.15234e-05
7.96293e-08
1.15197e-05
-2.10465e-08
1.15008e-05
-1.06474e-07
1.14834e-05
-8.85479e-08
1.14731e-05
-4.90923e-08
1.14698e-05
-7.73517e-09
1.14759e-05
4.57091e-08
1.14847e-05
7.77009e-08
1.14889e-05
6.49262e-08
1.1492e-05
4.04414e-08
1.14942e-05
2.87929e-08
1.14926e-05
1.3999e-08
1.1488e-05
-1.19521e-09
1.1484e-05
-1.36553e-08
1.14804e-05
-1.50083e-08
1.14772e-05
-1.48371e-08
-1.02541e-08
1.14751e-05
1.20598e-05
-8.35302e-09
1.20506e-05
-7.07614e-08
1.20629e-05
6.13439e-08
1.20727e-05
6.98955e-08
1.207e-05
-1.83763e-08
1.20519e-05
-8.84331e-08
1.20347e-05
-7.12949e-08
1.20245e-05
-3.89508e-08
1.20215e-05
-4.63976e-09
1.20264e-05
4.07214e-08
1.20341e-05
7.00018e-08
1.20379e-05
6.11281e-08
1.20403e-05
3.80435e-08
1.20424e-05
2.67559e-08
1.20417e-05
1.46287e-08
1.20378e-05
2.73112e-09
1.20339e-05
-9.714e-09
1.20307e-05
-1.18278e-08
1.20278e-05
-1.19539e-08
-8.29678e-09
1.20259e-05
1.26372e-05
-2.99211e-09
1.26289e-05
-6.23975e-08
1.2639e-05
5.11811e-08
1.26478e-05
6.10801e-08
1.26463e-05
-1.68639e-08
1.26303e-05
-7.23567e-08
1.26128e-05
-5.38598e-08
1.26024e-05
-2.85102e-08
1.25995e-05
-1.71615e-09
1.26037e-05
3.64352e-08
1.26104e-05
6.33056e-08
1.26137e-05
5.78892e-08
1.26154e-05
3.63364e-08
1.26171e-05
2.50398e-08
1.26171e-05
1.46126e-08
1.26141e-05
5.70377e-09
1.26104e-05
-5.9515e-09
1.26075e-05
-8.9201e-09
1.2605e-05
-9.51465e-09
-6.31351e-09
1.26031e-05
1.32421e-05
1.86585e-09
1.32348e-05
-5.51147e-08
1.32431e-05
4.28371e-08
1.32505e-05
5.36763e-08
1.32499e-05
-1.6183e-08
1.32363e-05
-5.88431e-08
1.32191e-05
-3.6582e-08
1.32077e-05
-1.71686e-08
1.32048e-05
1.17826e-09
1.32087e-05
3.25356e-08
1.32148e-05
5.72548e-08
1.32175e-05
5.51514e-08
1.32185e-05
3.53583e-08
1.32197e-05
2.37983e-08
1.32201e-05
1.42514e-08
1.32181e-05
7.65824e-09
1.32149e-05
-2.65474e-09
1.3212e-05
-6.08254e-09
1.32101e-05
-7.5555e-09
-4.36471e-09
1.32081e-05
1.38758e-05
6.26665e-09
1.38696e-05
-4.89526e-08
1.38765e-05
3.59331e-08
1.38823e-05
4.79035e-08
1.38818e-05
-1.57101e-08
1.3871e-05
-4.80739e-08
1.38545e-05
-2.0028e-08
1.38421e-05
-4.767e-09
1.38387e-05
4.58937e-09
1.38424e-05
2.87811e-08
1.38482e-05
5.1444e-08
1.38507e-05
5.27179e-08
1.38511e-05
3.49689e-08
1.38516e-05
2.324e-08
1.38521e-05
1.378e-08
1.3851e-05
8.76202e-09
1.38485e-05
-1.23422e-10
1.38457e-05
-3.33821e-09
1.38441e-05
-5.93361e-09
-2.81457e-09
1.38425e-05
1.45397e-05
1.01829e-08
1.45342e-05
-4.33559e-08
1.45398e-05
3.02658e-08
1.45444e-05
4.33223e-08
1.45436e-05
-1.4936e-08
1.45352e-05
-3.9612e-08
1.45201e-05
-4.91657e-09
1.4507e-05
8.28276e-09
1.45025e-05
9.05313e-09
1.4506e-05
2.53177e-08
1.4512e-05
4.5494e-08
1.45145e-05
5.01521e-08
1.45144e-05
3.50388e-08
1.45143e-05
2.33928e-08
1.45146e-05
1.34837e-08
1.4514e-05
9.36491e-09
1.45123e-05
1.54118e-09
1.45099e-05
-9.5167e-10
1.45084e-05
-4.39639e-09
-1.79524e-09
1.45074e-05
1.52354e-05
1.36966e-08
1.52274e-05
-3.53913e-08
1.52346e-05
2.30675e-08
1.5239e-05
3.89373e-08
1.52367e-05
-1.26229e-08
1.52293e-05
-3.22322e-08
1.52167e-05
7.68917e-09
1.5204e-05
2.10183e-08
1.51984e-05
1.45867e-08
1.52008e-05
2.29241e-08
1.5207e-05
3.92988e-08
1.52101e-05
4.70247e-08
1.521e-05
3.51437e-08
1.52093e-05
2.41203e-08
1.52093e-05
1.35201e-08
1.52089e-05
9.72335e-09
1.52079e-05
2.5107e-09
1.52062e-05
7.50519e-10
1.52047e-05
-2.86417e-09
-1.19943e-09
1.52041e-05
1.5965e-05
1.60592e-08
1.59687e-05
-3.91454e-08
1.59754e-05
1.64001e-08
1.59701e-05
4.41948e-08
1.59607e-05
-3.20062e-09
1.59543e-05
-2.57912e-08
1.59459e-05
1.60863e-08
1.59345e-05
3.23908e-08
1.59281e-05
2.10207e-08
1.59289e-05
2.20756e-08
1.59348e-05
3.33674e-08
1.59389e-05
4.30024e-08
1.59392e-05
3.4833e-08
1.5938e-05
2.52526e-08
1.59376e-05
1.39191e-08
1.59373e-05
1.00795e-08
1.59367e-05
3.11004e-09
1.59358e-05
1.67062e-09
1.59345e-05
-1.58971e-09
-7.31604e-10
1.5934e-05
1.67281e-05
1.8595e-08
1.67147e-05
-2.57883e-08
1.67202e-05
1.09375e-08
1.67228e-05
4.15402e-08
1.67172e-05
2.46696e-09
1.67132e-05
-2.18463e-08
1.67095e-05
1.97526e-08
1.67002e-05
4.17394e-08
1.6693e-05
2.81972e-08
1.66924e-05
2.2745e-08
1.66972e-05
2.85017e-08
1.67019e-05
3.83392e-08
1.67033e-05
3.34525e-08
1.67022e-05
2.63531e-08
1.67014e-05
1.46748e-08
1.6701e-05
1.0507e-08
1.67005e-05
3.58672e-09
1.67002e-05
1.98672e-09
1.66994e-05
-8.21724e-10
-2.26821e-10
1.66989e-05
1.75289e-05
2.00287e-08
1.75239e-05
-2.07386e-08
1.7524e-05
1.08342e-08
1.75217e-05
4.38481e-08
1.75126e-05
1.1496e-08
1.75082e-05
-1.74226e-08
1.75087e-05
1.92674e-08
1.75025e-05
4.79651e-08
1.74951e-05
3.56162e-08
1.74928e-05
2.49835e-08
1.74964e-05
2.49566e-08
1.7501e-05
3.37265e-08
1.75034e-05
3.09985e-08
1.7503e-05
2.67576e-08
1.7502e-05
1.57215e-08
1.75015e-05
1.09813e-08
1.7501e-05
4.06211e-09
1.75009e-05
2.12041e-09
1.75008e-05
-6.81999e-10
9.88506e-11
1.75004e-05
1.83671e-05
2.13216e-08
1.83562e-05
-9.91886e-09
1.83579e-05
9.15778e-09
1.8359e-05
4.27178e-08
1.83497e-05
2.08465e-08
1.83427e-05
-1.04577e-08
1.8345e-05
1.70021e-08
1.83424e-05
5.0532e-08
1.83357e-05
4.23102e-08
1.8332e-05
2.87121e-08
1.83341e-05
2.28921e-08
1.83382e-05
2.96376e-08
1.83414e-05
2.77784e-08
1.83421e-05
2.60182e-08
1.83414e-05
1.647e-08
1.83407e-05
1.16463e-08
1.83404e-05
4.35377e-09