/*--------------------------------*- C++ -*----------------------------------*\
| =========                 |                                                 |
| \\      /  F ield         | OpenFOAM: The Open Source CFD Toolbox           |
|  \\    /   O peration     | Version:  2506                                  |
|   \\  /    A nd           | Website:  www.openfoam.com                      |
|    \\/     M anipulation  |                                                 |
\*---------------------------------------------------------------------------*/
FoamFile
{
    version     2.0;
    format      ascii;
    arch        "LSB;label=32;scalar=64";
    class       volVectorField;
    location    "9.05";
    object      U;
}
// * * * * * * * * * * * * * * * * * * * * * * * * * * * * * * * * * * * * * //

dimensions      [0 1 -1 0 0 0 0];

internalField   nonuniform List<vector> 
9600
(
(0.941684 -0.00759457 0)
(1.02019 0.00328774 0)
(0.98511 0.00423294 0)
(0.994145 0.010882 0)
(0.972109 0.00137314 0)
(0.989208 -0.0296199 0)
(0.99917 0.00184036 0)
(1.08358 -0.0266582 0)
(0.972193 0.0289591 0)
(1.13276 0.0104319 0)
(0.948684 0.0198086 0)
(1.08626 0.0170877 0)
(0.963337 0.000499074 0)
(1.0248 0.00176331 0)
(0.969454 -0.0167943 0)
(1.00834 -0.023553 0)
(0.942217 -0.0195115 0)
(1.01026 -0.0401591 0)
(0.879009 -0.0112226 0)
(1.03513 -0.0481259 0)
(0.948629 -0.00736708 0)
(1.01887 0.00304976 0)
(0.989865 0.00438328 0)
(0.994591 0.0110394 0)
(0.975037 0.00139251 0)
(0.97831 -0.0298617 0)
(0.996484 0.000498138 0)
(1.07474 -0.0261054 0)
(0.977197 0.0281967 0)
(1.11578 0.0110836 0)
(0.970034 0.0201481 0)
(1.05166 0.0169234 0)
(1.00105 0.00175293 0)
(0.995306 0.00154242 0)
(1.00988 -0.016152 0)
(0.981615 -0.0231118 0)
(0.996485 -0.0192383 0)
(0.959049 -0.0389911 0)
(0.967825 -0.0108002 0)
(0.945593 -0.048569 0)
(0.958989 -0.00717186 0)
(1.01524 0.00274569 0)
(0.998333 0.00457185 0)
(0.995694 0.0112124 0)
(0.978392 0.00150436 0)
(0.97031 -0.0299532 0)
(0.993215 -0.00066176 0)
(1.06273 -0.0257434 0)
(0.987726 0.0273196 0)
(1.09213 0.0112844 0)
(0.99572 0.0208714 0)
(1.02897 0.016621 0)
(1.01547 0.00246474 0)
(1.00257 0.00140922 0)
(1.00645 -0.0159193 0)
(0.996413 -0.0228815 0)
(0.983617 -0.0190424 0)
(0.978572 -0.0373552 0)
(0.962245 -0.013165 0)
(0.965648 -0.0409593 0)
(0.970449 -0.00702392 0)
(1.01013 0.00245198 0)
(1.00668 0.0046962 0)
(0.997042 0.0114184 0)
(0.982274 0.00172108 0)
(0.965483 -0.0300106 0)
(0.989654 -0.00173862 0)
(1.04947 -0.0256155 0)
(0.99981 0.0267734 0)
(1.07263 0.0112522 0)
(1.01498 0.0216611 0)
(1.02468 0.0165106 0)
(1.02313 0.00279428 0)
(1.01127 0.00150355 0)
(1.01309 -0.0155085 0)
(0.999249 -0.0224695 0)
(0.990666 -0.0182608 0)
(0.978505 -0.0371022 0)
(0.967719 -0.0123294 0)
(0.963064 -0.0392012 0)
(0.98097 -0.00690674 0)
(1.00521 0.00217641 0)
(1.01147 0.00476917 0)
(0.998208 0.0116692 0)
(0.987264 0.0019965 0)
(0.964435 -0.0299642 0)
(0.986385 -0.00276561 0)
(1.03629 -0.0256736 0)
(1.00933 0.0263711 0)
(1.06044 0.0112005 0)
(1.02706 0.0221954 0)
(1.02901 0.0165511 0)
(1.02934 0.00303668 0)
(1.01805 0.00156827 0)
(1.01791 -0.0149769 0)
(1.00207 -0.0220055 0)
(0.994238 -0.0179214 0)
(0.981482 -0.0358617 0)
(0.970561 -0.0125885 0)
(0.966622 -0.0365279 0)
(0.989166 -0.00681614 0)
(1.00148 0.00194127 0)
(1.01166 0.00481308 0)
(0.999068 0.0119067 0)
(0.993797 0.00229766 0)
(0.966224 -0.0298206 0)
(0.98445 -0.00370713 0)
(1.0234 -0.0258643 0)
(1.0149 0.0258547 0)
(1.05352 0.0111099 0)
(1.03407 0.0224404 0)
(1.03431 0.0166512 0)
(1.03404 0.00327246 0)
(1.02261 0.00168854 0)
(1.02099 -0.0143605 0)
(1.00487 -0.0215294 0)
(0.996278 -0.0173557 0)
(0.984276 -0.0347327 0)
(0.972387 -0.0128946 0)
(0.969036 -0.0340461 0)
(0.994605 -0.00674557 0)
(0.998892 0.00176616 0)
(1.00853 0.00483001 0)
(0.999802 0.0120668 0)
(1.00143 0.00259851 0)
(0.969698 -0.0295726 0)
(0.984615 -0.00449602 0)
(1.0105 -0.0261262 0)
(1.01707 0.0251591 0)
(1.04893 0.0109829 0)
(1.03732 0.0225078 0)
(1.0377 0.0167766 0)
(1.03673 0.00353605 0)
(1.02542 0.00185304 0)
(1.02314 -0.0137263 0)
(1.00748 -0.0209437 0)
(0.998364 -0.016851 0)
(0.987066 -0.0335027 0)
(0.974473 -0.0132542 0)
(0.971074 -0.0315038 0)
(0.99765 -0.00668375 0)
(0.996939 0.00165299 0)
(1.00426 0.00482013 0)
(1.00067 0.0121095 0)
(1.00902 0.00288348 0)
(0.974027 -0.0292258 0)
(0.986793 -0.00509143 0)
(0.997513 -0.0263939 0)
(1.01679 0.02429 0)
(1.04415 0.0108438 0)
(1.0372 0.0224537 0)
(1.03856 0.0169223 0)
(1.03742 0.0038124 0)
(1.02687 0.00201762 0)
(1.02459 -0.0130758 0)
(1.00957 -0.0203124 0)
(1.00047 -0.016394 0)
(0.989751 -0.0321921 0)
(0.976944 -0.0135521 0)
(0.97293 -0.0290259 0)
(0.999029 -0.00661841 0)
(0.995277 0.00158876 0)
(1.00057 0.00478185 0)
(1.00176 0.012026 0)
(1.01537 0.00314279 0)
(0.978687 -0.028802 0)
(0.990056 -0.0054743 0)
(0.985328 -0.0266034 0)
(1.01441 0.0232553 0)
(1.03759 0.0107121 0)
(1.03391 0.0222824 0)
(1.03714 0.0170632 0)
(1.03653 0.00405339 0)
(1.02735 0.00217438 0)
(1.02547 -0.0124406 0)
(1.01119 -0.01967 0)
(1.00249 -0.0159761 0)
(0.992496 -0.0307995 0)
(0.979688 -0.0137976 0)
(0.975026 -0.0266499 0)
(0.999467 -0.00654055 0)
(0.993885 0.0015524 0)
(0.998209 0.00471236 0)
(1.00298 0.0118336 0)
(1.01979 0.00336875 0)
(0.983273 -0.028331 0)
(0.993204 -0.00564002 0)
(0.97559 -0.0267001 0)
(1.00995 0.0220975 0)
(1.02904 0.0106072 0)
(1.02822 0.0219852 0)
(1.03421 0.0171514 0)
(1.0346 0.00422173 0)
(1.02719 0.0023118 0)
(1.02574 -0.0118514 0)
(1.01219 -0.0190075 0)
(1.0041 -0.0155918 0)
(0.994969 -0.0293544 0)
(0.982362 -0.0140192 0)
(0.977275 -0.0243491 0)
(0.999524 -0.00644691 0)
(0.992871 0.00152486 0)
(0.997128 0.00461132 0)
(1.00415 0.0115669 0)
(1.02225 0.00355814 0)
(0.987454 -0.0278319 0)
(0.995351 -0.00562059 0)
(0.969755 -0.0266569 0)
(1.00391 0.0208907 0)
(1.01976 0.010537 0)
(1.02161 0.0215238 0)
(1.0308 0.0171651 0)
(1.0323 0.00431213 0)
(1.0265 0.00241407 0)
(1.02542 -0.0112911 0)
(1.01251 -0.0183151 0)
(1.00506 -0.0152531 0)
(0.996851 -0.0279045 0)
(0.984655 -0.0141725 0)
(0.979429 -0.0221466 0)
(0.999565 -0.00633891 0)
(0.992284 0.00149391 0)
(0.996882 0.00448538 0)
(1.00507 0.0112595 0)
(1.02313 0.00371951 0)
(0.991032 -0.0273138 0)
(0.996204 -0.00548111 0)
(0.968171 -0.026473 0)
(0.997465 0.0197027 0)
(1.01171 0.0104892 0)
(1.01577 0.0208805 0)
(1.02765 0.0171021 0)
(1.03006 0.00432521 0)
(1.02524 0.0024918 0)
(1.02446 -0.0107495 0)
(1.01219 -0.0176005 0)
(1.00524 -0.0149576 0)
(0.99794 -0.0264794 0)
(0.986339 -0.0142222 0)
(0.981214 -0.0200937 0)
(0.999778 -0.00622096 0)
(0.992068 0.001456 0)
(0.996971 0.00434477 0)
(1.00557 0.010931 0)
(1.02295 0.00385309 0)
(0.993976 -0.0267764 0)
(0.996001 -0.00529585 0)
(0.969886 -0.026162 0)
(0.99191 0.0185625 0)
(1.00626 0.0104477 0)
(1.01172 0.0200904 0)
(1.02483 0.0169846 0)
(1.02799 0.00427963 0)
(1.02335 0.00257768 0)
(1.02288 -0.0102404 0)
(1.01141 -0.0168723 0)
(1.0048 -0.0146717 0)
(0.998288 -0.025104 0)
(0.987407 -0.0141953 0)
(0.98251 -0.0182266 0)
(1.0002 -0.00609808 0)
(0.992105 0.00141348 0)
(0.997033 0.00419894 0)
(1.00554 0.0105927 0)
(1.02214 0.00395826 0)
(0.996375 -0.0262126 0)
(0.995252 -0.00511765 0)
(0.973255 -0.0257441 0)
(0.987905 0.0174748 0)
(1.00334 0.0103946 0)
(1.00938 0.0192111 0)
(1.02196 0.0168474 0)
(1.02588 0.00420711 0)
(1.02097 0.00267322 0)
(1.02082 -0.00975917 0)
(1.01043 -0.0161554 0)
(1.00401 -0.0143656 0)
(0.998128 -0.0238159 0)
(0.988034 -0.0141117 0)
(0.98337 -0.0165466 0)
(1.00075 -0.00597393 0)
(0.992267 0.00136954 0)
(0.996911 0.0040593 0)
(1.00498 0.0102476 0)
(1.021 0.00403423 0)
(0.998344 -0.0256169 0)
(0.99444 -0.00496888 0)
(0.976813 -0.0252359 0)
(0.985253 0.0164343 0)
(1.00174 0.010321 0)
(1.00786 0.0183053 0)
(1.01869 0.0167194 0)
(1.02354 0.00411836 0)
(1.01839 0.00276106 0)
(1.01857 -0.00930075 0)
(1.00944 -0.0154838 0)
(1.00318 -0.0140157 0)
(0.997749 -0.0226294 0)
(0.988454 -0.0139622 0)
(0.983946 -0.0150608 0)
(1.0013 -0.00585064 0)
(0.992463 0.00132839 0)
(0.996623 0.00393445 0)
(1.00407 0.00989457 0)
(1.01974 0.00407869 0)
(0.99995 -0.0249934 0)
(0.993823 -0.0048491 0)
(0.979784 -0.0246464 0)
(0.983341 0.0154349 0)
(1.00021 0.0102389 0)
(1.0063 0.0174073 0)
(1.01506 0.0166116 0)
(1.02098 0.00400442 0)
(1.01595 0.00283557 0)
(1.01641 -0.00887084 0)
(1.00855 -0.0148748 0)
(1.0025 -0.0136012 0)
(0.99737 -0.0215289 0)
(0.988839 -0.0137574 0)
(0.984391 -0.0137526 0)
(1.00175 -0.00572796 0)
(0.992648 0.00129123 0)
(0.996275 0.00382881 0)
(1.00308 0.00953278 0)
(1.01848 0.00409089 0)
(1.0012 -0.0243529 0)
(0.993445 -0.00474968 0)
(0.98202 -0.0239771 0)
(0.981718 0.0144726 0)
(0.998193 0.0101708 0)
(1.00436 0.0165182 0)
(1.01143 0.0165159 0)
(1.01841 0.00385011 0)
(1.01384 0.00288655 0)
(1.01455 -0.00845289 0)
(1.00782 -0.0143421 0)
(1.002 -0.0131185 0)
(0.997089 -0.0204808 0)
(0.989265 -0.0135362 0)
(0.984799 -0.0125721 0)
(1.00205 -0.00560455 0)
(0.99282 0.00125659 0)
(0.995968 0.00374319 0)
(1.00221 0.00916206 0)
(1.01732 0.00407355 0)
(1.00211 -0.0237031 0)
(0.993237 -0.00466438 0)
(0.983664 -0.0232305 0)
(0.980317 0.0135503 0)
(0.995895 0.0101304 0)
(1.00227 0.0156203 0)
(1.00821 0.0164204 0)
(1.01611 0.00365773 0)
(1.01214 0.00288326 0)
(1.01304 -0.00801568 0)
(1.00722 -0.0139004 0)
(1.00164 -0.0125728 0)
(0.996908 -0.019458 0)
(0.989748 -0.0133317 0)
(0.985202 -0.0114836 0)
(1.0022 -0.00547824 0)
(0.992992 0.00122057 0)
(0.995761 0.00367735 0)
(1.00157 0.00877936 0)
(1.01628 0.00403559 0)
(1.00268 -0.0230475 0)
(0.99312 -0.0045908 0)
(0.984892 -0.022414 0)
(0.979282 0.0126659 0)
(0.993764 0.010126 0)
(1.0004 0.0146953 0)
(1.00564 0.0163077 0)
(1.01425 0.00343014 0)
(1.01082 0.00279983 0)
(1.01184 -0.00754044 0)
(1.00674 -0.0135349 0)
(1.00136 -0.0119933 0)
(0.996787 -0.0184374 0)
(0.990276 -0.013161 0)
(0.985605 -0.0104721 0)
(1.00223 -0.00534711 0)
(0.99317 0.00117871 0)
(0.995665 0.00362952 0)
(1.00116 0.00838426 0)
(1.01535 0.00398354 0)
(1.00299 -0.0223835 0)
(0.99304 -0.00452877 0)
(0.985829 -0.021532 0)
(0.978728 0.0118025 0)
(0.992113 0.0101563 0)
(0.999021 0.0137492 0)
(1.00375 0.0161505 0)
(1.01283 0.00319652 0)
(1.00982 0.00263133 0)
(1.01086 -0.00701648 0)
(1.00637 -0.013224 0)
(1.00113 -0.0114186 0)
(0.996686 -0.0173791 0)
(0.990835 -0.0130299 0)
(0.986013 -0.00956624 0)
(1.00218 -0.00521003 0)
(0.993352 0.00112811 0)
(0.995668 0.0035967 0)
(1.00092 0.00798042 0)
(1.01451 0.00392033 0)
(1.00311 -0.0217095 0)
(0.992972 -0.00447839 0)
(0.986562 -0.0205917 0)
(0.978647 0.0109526 0)
(0.991016 0.0102084 0)
(0.998162 0.0127895 0)
(1.00244 0.0159456 0)
(1.01176 0.00298732 0)
(1.00906 0.00238463 0)
(1.01001 -0.00643084 0)
(1.00606 -0.0129478 0)
(1.00095 -0.0108709 0)
(0.996582 -0.016263 0)
(0.991405 -0.0129189 0)
(0.986444 -0.00879782 0)
(1.00208 -0.00506609 0)
(0.993527 0.00106631 0)
(0.995745 0.00357698 0)
(1.00082 0.0075679 0)
(1.01374 0.00385536 0)
(1.0031 -0.0210261 0)
(0.992913 -0.00444309 0)
(0.987156 -0.0196059 0)
(0.978947 0.0101009 0)
(0.990398 0.0102813 0)
(0.997738 0.0118191 0)
(1.00156 0.0156887 0)
(1.01094 0.00281061 0)
(1.00848 0.00206512 0)
(1.00925 -0.00579864 0)
(1.0058 -0.0126657 0)
(1.0008 -0.010373 0)
(0.996469 -0.0150838 0)
(0.991963 -0.0128006 0)
(0.986918 -0.0081831 0)
(1.00197 -0.00491422 0)
(0.993685 0.000990716 0)
(0.995872 0.00356934 0)
(1.00078 0.0071468 0)
(1.01302 0.0037921 0)
(1.00302 -0.0203296 0)
(0.992871 -0.0044234 0)
(0.987662 -0.0185822 0)
(0.979515 0.00923513 0)
(0.99013 0.0103634 0)
(0.997617 0.0108586 0)
(1.00098 0.0153596 0)
(1.01027 0.00269852 0)
(1.00803 0.0016631 0)
(1.00851 -0.00513982 0)
(1.00556 -0.0123305 0)
(1.0007 -0.00996575 0)
(0.996348 -0.013846 0)
(0.992488 -0.0126224 0)
(0.987456 -0.00775059 0)
(1.00187 -0.00475355 0)
(0.993822 0.000899945 0)
(0.996027 0.00357217 0)
(1.00079 0.00671866 0)
(1.01236 0.00372738 0)
(1.00293 -0.0196162 0)
(0.992856 -0.00441873 0)
(0.988119 -0.0175263 0)
(0.98025 0.00835512 0)
(0.990084 0.0104402 0)
(0.997678 0.00992526 0)
(1.00059 0.0149579 0)
(1.00966 0.00267142 0)
(1.00767 0.00119837 0)
(1.0078 -0.00447825 0)
(1.00534 -0.0119167 0)
(1.00063 -0.00966566 0)
(0.996236 -0.0125917 0)
(0.992955 -0.0123244 0)
(0.988067 -0.00750765 0)
(1.0018 -0.00458493 0)
(0.993938 0.000795433 0)
(0.996185 0.0035834 0)
(1.0008 0.00628666 0)
(1.01172 0.00365921 0)
(1.00283 -0.0188818 0)
(0.992879 -0.004434 0)
(0.98855 -0.0164473 0)
(0.981079 0.00746379 0)
(0.990155 0.0105036 0)
(0.997824 0.00903708 0)
(1.00031 0.0144765 0)
(1.00906 0.00273728 0)
(1.00736 0.000705843 0)
(1.0071 -0.00384542 0)
(1.00512 -0.0114034 0)
(1.00061 -0.00946343 0)
(0.996148 -0.0113831 0)
(0.99335 -0.0118797 0)
(0.988748 -0.00741691 0)
(1.00177 -0.00440748 0)
(0.99404 0.000675822 0)
(0.996327 0.0036025 0)
(1.0008 0.00585465 0)
(1.01112 0.00358608 0)
(1.00274 -0.0181232 0)
(0.992945 -0.00446851 0)
(0.988968 -0.0153497 0)
(0.981954 0.0065676 0)
(0.99027 0.0105425 0)
(0.997992 0.00821166 0)
(1.00009 0.013892 0)
(1.00843 0.00289196 0)
(1.0071 0.000188171 0)
(1.00643 -0.00327282 0)
(1.00488 -0.0107712 0)
(1.00064 -0.00933325 0)
(0.996105 -0.010276 0)
(0.993668 -0.0112749 0)
(0.989486 -0.00742475 0)
(1.00176 -0.00422184 0)
(0.994139 0.000543211 0)
(0.996439 0.0036277 0)
(1.00079 0.00542236 0)
(1.01052 0.00350644 0)
(1.00266 -0.0173405 0)
(0.993054 -0.00451999 0)
(0.989377 -0.0142376 0)
(0.982851 0.00567145 0)
(0.990387 0.0105478 0)
(0.998145 0.0074569 0)
(0.999912 0.0132078 0)
(1.00777 0.0031062 0)
(1.00687 -0.000324889 0)
(1.00579 -0.00278876 0)
(1.00462 -0.0100194 0)
(1.00071 -0.00924366 0)
(0.996122 -0.00930396 0)
(0.993913 -0.0105191 0)
(0.990253 -0.0074606 0)
(1.00177 -0.00402865 0)
(0.994246 0.000399061 0)
(0.996518 0.0036577 0)
(1.00075 0.00499257 0)
(1.00995 0.00341368 0)
(1.00257 -0.0165331 0)
(0.993205 -0.00458635 0)
(0.989777 -0.0131247 0)
(0.983761 0.0047944 0)
(0.990496 0.0105019 0)
(0.998268 0.00679665 0)
(0.999758 0.0124333 0)
(1.00708 0.00337279 0)
(1.00665 -0.000781419 0)
(1.00522 -0.00241159 0)
(1.00433 -0.00916771 0)
(1.00081 -0.00914577 0)
(0.99621 -0.00848755 0)
(0.994102 -0.00965319 0)
(0.991014 -0.00745518 0)
(1.00178 -0.00382872 0)
(0.994371 0.000247522 0)
(0.996566 0.00368785 0)
(1.0007 0.00457024 0)
(1.00938 0.00329895 0)
(1.00247 -0.0156968 0)
(0.993388 -0.00466939 0)
(0.990168 -0.012019 0)
(0.98468 0.00394907 0)
(0.9906 0.0103922 0)
(0.998359 0.0062423 0)
(0.999634 0.0115725 0)
(1.00637 0.00367446 0)
(1.00642 -0.00116317 0)
(1.00472 -0.00215343 0)
(1.00401 -0.00825301 0)
(1.00094 -0.00898188 0)
(0.99637 -0.0078402 0)
(0.994253 -0.00874432 0)
(0.991732 -0.00735285 0)
(1.00179 -0.00362367 0)
(0.99452 9.06354e-05 0)
(0.996596 0.00371901 0)
(1.00064 0.00415975 0)
(1.00882 0.00316287 0)
(1.00235 -0.0148319 0)
(0.993597 -0.0047686 0)
(0.990551 -0.0109246 0)
(0.985606 0.0031455 0)
(0.990714 0.0102051 0)
(0.998418 0.00579585 0)
(0.999541 0.0106517 0)
(1.00565 0.00396404 0)
(1.00617 -0.00144651 0)
(1.00429 -0.00201658 0)
(1.00365 -0.00731265 0)
(1.00106 -0.00872003 0)
(0.996593 -0.0073664 0)
(0.99439 -0.00785439 0)
(0.992378 -0.00710698 0)
(1.00179 -0.00341302 0)
(0.994692 -7.11766e-05 0)
(0.996622 0.00374819 0)
(1.00059 0.00376842 0)
(1.00827 0.00300612 0)
(1.0022 -0.0139405 0)
(0.993824 -0.00487344 0)
(0.990926 -0.00986179 0)
(0.986532 0.00239868 0)
(0.99085 0.00993829 0)
(0.998449 0.00544993 0)
(0.999479 0.00970047 0)
(1.00494 0.00422709 0)
(1.00588 -0.00160313 0)
(1.00395 -0.00198558 0)
(1.00327 -0.00639733 0)
(1.00115 -0.00834118 0)
(0.996867 -0.00702676 0)
(0.99454 -0.00703355 0)
(0.992934 -0.00671514 0)
(1.00177 -0.00319848 0)
(0.994885 -0.000231841 0)
(0.996655 0.00376889 0)
(1.00054 0.00339594 0)
(1.00774 0.00282265 0)
(1.00203 -0.0130287 0)
(0.994064 -0.00497892 0)
(0.991293 -0.00883945 0)
(0.987454 0.00173148 0)
(0.991017 0.00957838 0)
(0.998453 0.00519554 0)
(0.999447 0.00873381 0)
(1.00426 0.00442956 0)
(1.00554 -0.00162754 0)
(1.00367 -0.00203089 0)
(1.00289 -0.00555444 0)
(1.0012 -0.00784029 0)
(0.997175 -0.0067596 0)
(0.994724 -0.00633188 0)
(0.993396 -0.0062134 0)
(1.00173 -0.00298137 0)
(0.995095 -0.000396856 0)
(0.996705 0.00377879 0)
(1.0005 0.00304945 0)
(1.00723 0.00261175 0)
(1.00184 -0.0121048 0)
(0.994314 -0.00507587 0)
(0.991657 -0.00786451 0)
(0.988363 0.00114636 0)
(0.99122 0.00913116 0)
(0.99843 0.00501635 0)
(0.999439 0.00778266 0)
(1.00361 0.00455498 0)
(1.00515 -0.00152351 0)
(1.00345 -0.00211715 0)
(1.00252 -0.00480508 0)
(1.0012 -0.00724066 0)
(0.997495 -0.00650757 0)
(0.994954 -0.00576668 0)
(0.993779 -0.00564508 0)
(1.00168 -0.00276285 0)
(0.995316 -0.000559839 0)
(0.996773 0.00377177 0)
(1.00047 0.00273853 0)
(1.00673 0.00237954 0)
(1.00163 -0.0111775 0)
(0.994574 -0.00515349 0)
(0.992017 -0.00696072 0)
(0.989252 0.000651068 0)
(0.991461 0.00860553 0)
(0.998383 0.00489737 0)
(0.999451 0.00687917 0)
(1.00301 0.00458863 0)
(1.00471 -0.00130769 0)
(1.00327 -0.00220733 0)
(1.00219 -0.00416844 0)
(1.00115 -0.00657985 0)
(0.997807 -0.00622695 0)
(0.995235 -0.00532273 0)
(0.99411 -0.00507022 0)
(1.00162 -0.00254266 0)
(0.995545 -0.000718221 0)
(0.996858 0.00374702 0)
(1.00045 0.00246248 0)
(1.00626 0.00212493 0)
(1.00142 -0.0102521 0)
(0.994841 -0.00521001 0)
(0.992377 -0.00613483 0)
(0.990113 0.00024677 0)
(0.991739 0.00801779 0)
(0.998315 0.00482319 0)
(0.999475 0.00604228 0)
(1.00246 0.00452555 0)
(1.00424 -0.00101418 0)
(1.00312 -0.00226741 0)
(1.0019 -0.0036538 0)
(1.00105 -0.00589349 0)
(0.998094 -0.00589555 0)
(0.995558 -0.00497076 0)
(0.994417 -0.00454568 0)
(1.00156 -0.00232297 0)
(0.99578 -0.000872993 0)
(0.996958 0.0037023 0)
(1.00042 0.00222392 0)
(1.00581 0.00185056 0)
(1.0012 -0.00934465 0)
(0.995115 -0.00522384 0)
(0.992737 -0.00538804 0)
(0.990943 -6.3601e-05 0)
(0.992057 0.00738367 0)
(0.998233 0.00475979 0)
(0.999505 0.0052916 0)
(1.00198 0.00437863 0)
(1.00374 -0.000675437 0)
(1.00297 -0.00226807 0)
(1.00168 -0.00324047 0)
(1.00094 -0.00522093 0)
(0.998345 -0.00550046 0)
(0.995912 -0.00467171 0)
(0.994726 -0.00409816 0)
(1.00149 -0.00210663 0)
(0.996019 -0.00101517 0)
(0.99707 0.00363865 0)
(1.00039 0.0020197 0)
(1.00538 0.00156793 0)
(1.00098 -0.00846152 0)
(0.995393 -0.00519542 0)
(0.9931 -0.00473552 0)
(0.991735 -0.000277055 0)
(0.992407 0.00671088 0)
(0.998144 0.00468797 0)
(0.999535 0.0046372 0)
(1.00157 0.00414948 0)
(1.00324 -0.000318878 0)
(1.00282 -0.00219655 0)
(1.00151 -0.00290882 0)
(1.00082 -0.00458631 0)
(0.998558 -0.0050523 0)
(0.996278 -0.00439003 0)
(0.995055 -0.00373811 0)
(1.00142 -0.00189295 0)
(0.996262 -0.00114582 0)
(0.997192 0.00355036 0)
(1.00035 0.00185313 0)
(1.00499 0.00127799 0)
(1.00077 -0.00760975 0)
(0.99567 -0.00511889 0)
(0.993467 -0.00417111 0)
(0.992487 -0.000428075 0)
(0.992788 0.006028 0)
(0.998054 0.0045973 0)
(0.999558 0.00407755 0)
(1.00123 0.00385619 0)
(1.00274 2.13066e-05 0)
(1.00265 -0.00205733 0)
(1.00139 -0.00264092 0)
(1.00072 -0.00400232 0)
(0.998732 -0.00458053 0)
(0.996638 -0.00409356 0)
(0.99541 -0.00344864 0)
(1.00135 -0.0016838 0)
(0.996505 -0.00126322 0)
(0.997324 0.00343969 0)
(1.0003 0.00172278 0)
(1.00462 0.000986802 0)
(1.00056 -0.00680676 0)
(0.995945 -0.00498781 0)
(0.993836 -0.00369073 0)
(0.993196 -0.000523488 0)
(0.993195 0.00535649 0)
(0.997972 0.0044784 0)
(0.999568 0.00361296 0)
(1.00096 0.00352785 0)
(1.00227 0.000322477 0)
(1.00247 -0.00185897 0)
(1.00131 -0.00240874 0)
(1.00063 -0.00348052 0)
(0.998879 -0.00409917 0)
(0.99698 -0.00376624 0)
(0.995781 -0.0031928 0)
(1.00129 -0.00148322 0)
(0.99675 -0.00135828 0)
(0.997466 0.00330253 0)
(1.00024 0.00162525 0)
(1.00428 0.00070051 0)
(1.00036 -0.00605529 0)
(0.996212 -0.00480108 0)
(0.994209 -0.00329495 0)
(0.993864 -0.000561072 0)
(0.993623 0.00472034 0)
(0.997905 0.00432634 0)
(0.999566 0.00323791 0)
(1.00074 0.00319544 0)
(1.00184 0.000584283 0)
(1.00228 -0.00160973 0)
(1.00126 -0.00219558 0)
(1.00058 -0.00302304 0)
(0.999007 -0.00361712 0)
(0.997298 -0.00341763 0)
(0.996153 -0.00293539 0)
(1.00122 -0.00129261 0)
(0.996992 -0.00143025 0)
(0.997618 0.00313514 0)
(1.00017 0.00155744 0)
(1.00397 0.000430388 0)
(1.00018 -0.00536174 0)
(0.996468 -0.00455288 0)
(0.994583 -0.00296492 0)
(0.994493 -0.000565205 0)
(0.994066 0.00412511 0)
(0.997857 0.00414384 0)
(0.999552 0.00293554 0)
(1.00059 0.00285307 0)
(1.00146 0.000787237 0)
(1.00207 -0.00132796 0)
(1.00123 -0.00198959 0)
(1.00056 -0.00262717 0)
(0.999127 -0.00315476 0)
(0.997592 -0.00306417 0)
(0.996512 -0.0026649 0)
(1.00115 -0.00111052 0)
(0.997231 -0.00148142 0)
(0.99778 0.00293624 0)
(1.00009 0.00151909 0)
(1.00368 0.000180571 0)
(1.00002 -0.00474004 0)
(0.996712 -0.00425981 0)
(0.994956 -0.00268323 0)
(0.995086 -0.000554327 0)
(0.99452 0.00356205 0)
(0.997835 0.0039294 0)
(0.999523 0.00269567 0)
(1.00047 0.00253389 0)
(1.00113 0.000936567 0)
(1.00187 -0.00103943 0)
(1.00122 -0.00178118 0)
(1.00057 -0.00228423 0)
(0.999246 -0.00272303 0)
(0.997866 -0.00271461 0)
(0.996853 -0.00238396 0)
(1.00109 -0.000943879 0)
(0.997464 -0.00149794 0)
(0.997953 0.00270225 0)
(1.00001 0.001499 0)
(1.00342 -4.40996e-05 0)
(0.999874 -0.00419495 0)
(0.996943 -0.0039279 0)
(0.995324 -0.00244053 0)
(0.995642 -0.000535915 0)
(0.99498 0.00304838 0)
(0.997844 0.00368183 0)
(0.999489 0.00251385 0)
(1.0004 0.00225393 0)
(1.00086 0.00104503 0)
(1.00166 -0.000756687 0)
(1.0012 -0.00157 0)
(1.00062 -0.0019967 0)
(0.99937 -0.00232954 0)
(0.998124 -0.00236897 0)
(0.997177 -0.00210235 0)
(1.00102 -0.000790565 0)
(0.997687 -0.00148319 0)
(0.998134 0.00244242 0)
(0.999927 0.00149271 0)
(1.00317 -0.000225519 0)
(0.999756 -0.00372949 0)
(0.99716 -0.00357334 0)
(0.995682 -0.00222143 0)
(0.996165 -0.000513625 0)
(0.995443 0.00259118 0)
(0.997889 0.0034162 0)
(0.999453 0.00237025 0)
(1.00035 0.00201847 0)
(1.00064 0.00110826 0)
(1.00146 -0.000492195 0)
(1.00119 -0.00135015 0)
(1.00069 -0.0017571 0)
(0.999513 -0.00197984 0)
(0.99837 -0.00202725 0)
(0.997483 -0.00183058 0)
(1.00096 -0.000652537 0)
(0.997898 -0.00143548 0)
(0.998322 0.00216391 0)
(0.999843 0.00149378 0)
(1.00293 -0.000350127 0)
(0.999661 -0.00333697 0)
(0.997368 -0.00321552 0)
(0.996029 -0.00200452 0)
(0.996656 -0.000490646 0)
(0.995904 0.00219468 0)
(0.997969 0.00314258 0)
(0.999424 0.00224826 0)
(1.00033 0.00182304 0)
(1.00048 0.00112913 0)
(1.00127 -0.000248128 0)
(1.00117 -0.00112246 0)
(1.00078 -0.00154712 0)
(0.99968 -0.00169097 0)
(0.99861 -0.00171128 0)
(0.997772 -0.00156127 0)
(1.0009 -0.000532217 0)
(0.998094 -0.00135536 0)
(0.998515 0.00188304 0)
(0.999762 0.00147128 0)
(1.0027 -0.000418873 0)
(0.999586 -0.00299091 0)
(0.997569 -0.00286217 0)
(0.99636 -0.00178699 0)
(0.997115 -0.000455041 0)
(0.99636 0.00185912 0)
(0.998083 0.00287245 0)
(0.999404 0.00214279 0)
(1.00032 0.00165373 0)
(1.00037 0.0011252 0)
(1.00111 -2.40619e-05 0)
(1.00114 -0.000891026 0)
(1.00087 -0.00134717 0)
(0.99987 -0.00145796 0)
(0.998862 -0.00143838 0)
(0.998045 -0.00128696 0)
(1.00085 -0.000424185 0)
(0.998274 -0.00125871 0)
(0.998707 0.00161162 0)
(0.999687 0.00142053 0)
(1.00248 -0.000435876 0)
(0.999532 -0.00267549 0)
(0.997763 -0.00253113 0)
(0.996677 -0.00157453 0)
(0.997542 -0.00039512 0)
(0.996806 0.00158086 0)
(0.998227 0.00261589 0)
(0.999397 0.00203678 0)
(1.00033 0.00151185 0)
(1.00031 0.00109875 0)
(1.00097 0.000147484 0)
(1.0011 -0.000666008 0)
(1.00097 -0.00114516 0)
(1.00008 -0.00125748 0)
(0.999133 -0.0012207 0)
(0.998309 -0.00102558 0)
(1.0008 -0.000330992 0)
(0.998438 -0.00114749 0)
(0.998894 0.00136099 0)
(0.99962 0.00133258 0)
(1.00228 -0.000409955 0)
(0.999491 -0.00237044 0)
(0.997952 -0.00222414 0)
(0.99698 -0.00136737 0)
(0.997939 -0.000322274 0)
(0.997237 0.00136091 0)
(0.998393 0.00236441 0)
(0.9994 0.0019257 0)
(1.00034 0.00137796 0)
(1.00029 0.00104588 0)
(1.00087 0.000271237 0)
(1.00107 -0.000459277 0)
(1.00106 -0.00095387 0)
(1.00028 -0.00107628 0)
(0.999429 -0.00105982 0)
(0.998588 -0.000809881 0)
(1.00074 -0.000249285 0)
(0.998586 -0.00103265 0)
(0.999073 0.00114343 0)
(0.999565 0.00121409 0)
(1.00208 -0.000362028 0)
(0.999463 -0.00206708 0)
(0.998135 -0.00192021 0)
(0.99727 -0.00117405 0)
(0.998308 -0.000254013 0)
(0.997648 0.00118677 0)
(0.998575 0.00212444 0)
(0.999417 0.00181371 0)
(1.00036 0.00125908 0)
(1.0003 0.000981825 0)
(1.00081 0.00038108 0)
(1.00105 -0.000265415 0)
(1.00114 -0.000770489 0)
(1.00049 -0.0008928 0)
(0.999736 -0.000920688 0)
(0.998899 -0.000654997 0)
(1.0007 -0.000177319 0)
(0.998718 -0.000921664 0)
(0.999242 0.000955213 0)
(0.99952 0.00108808 0)
(1.00191 -0.000310224 0)
(0.999447 -0.00176447 0)
(0.998309 -0.00162386 0)
(0.997542 -0.000993202 0)
(0.998652 -0.000185509 0)
(0.998039 0.00104796 0)
(0.998768 0.00190724 0)
(0.999445 0.00169813 0)
(1.00038 0.00115286 0)
(1.00034 0.000905377 0)
(1.00078 0.000450929 0)
(1.00104 -9.13318e-05 0)
(1.00122 -0.000597094 0)
(1.00069 -0.000716968 0)
(1.00003 -0.000774897 0)
(0.999238 -0.000550647 0)
(1.00065 -0.000113712 0)
(0.998835 -0.000814673 0)
(0.999398 0.000796137 0)
(0.999485 0.000957494 0)
(1.00176 -0.000277247 0)
(0.999443 -0.0014712 0)
(0.998471 -0.00133375 0)
(0.997798 -0.000813814 0)
(0.99897 -0.0001186 0)
(0.998408 0.000931116 0)
(0.998968 0.00172588 0)
(0.999484 0.00159455 0)
(1.00041 0.00107486 0)
(1.00041 0.000827475 0)
(1.0008 0.000479606 0)
(1.00104 5.30829e-05 0)
(1.0013 -0.000439092 0)
(1.00088 -0.00057348 0)
(1.00032 -0.000637066 0)
(0.999589 -0.000480346 0)
(1.00061 -5.72467e-05 0)
(0.99894 -0.000718173 0)
(0.999542 0.000666203 0)
(0.999456 0.000837908 0)
(1.00163 -0.000255629 0)
(0.999456 -0.00120988 0)
(0.998623 -0.00103664 0)
(0.998033 -0.000627124 0)
(0.999263 -6.50955e-05 0)
(0.998761 0.000829147 0)
(0.999176 0.00156649 0)
(0.999534 0.00151502 0)
(1.00043 0.00102192 0)
(1.00049 0.000770059 0)
(1.00085 0.000492687 0)
(1.00106 0.000177768 0)
(1.00138 -0.000276082 0)
(1.00106 -0.000433819 0)
(1.00058 -0.000497642 0)
(0.999926 -0.000386252 0)
(1.00057 -3.88475e-06 0)
(0.999032 -0.00063358 0)
(0.999676 0.000560835 0)
(0.999434 0.000730614 0)
(1.00151 -0.000241694 0)
(0.999488 -0.000985942 0)
(0.99877 -0.000736698 0)
(0.998242 -0.000424557 0)
(0.999528 -9.45511e-06 0)
(0.999095 0.000742744 0)
(0.999394 0.00141067 0)
(0.999599 0.001446 0)
(1.00045 0.000980832 0)
(1.00057 0.000720821 0)
(1.00093 0.000471769 0)
(1.00112 0.000253961 0)
(1.00145 -0.00013706 0)
(1.00124 -0.000302258 0)
(1.00084 -0.000383613 0)
(1.00023 -0.000275399 0)
(1.00053 3.98896e-05 0)
(0.999115 -0.000567495 0)
(0.9998 0.000472639 0)
(0.999415 0.00065044 0)
(1.00142 -0.000237986 0)
(0.999546 -0.000807196 0)
(0.998917 -0.000450856 0)
(0.998425 -0.00020369 0)
(0.999762 5.36889e-05 0)
(0.999409 0.000657423 0)
(0.99962 0.00127745 0)
(0.999678 0.00138548 0)
(1.00047 0.000980116 0)
(1.00064 0.000699884 0)
(1.00102 0.000459016 0)
(1.0012 0.000301978 0)
(1.00154 -2.58221e-05 0)
(1.0014 -0.000179463 0)
(1.00109 -0.000301058 0)
(1.00052 -0.000178372 0)
(1.0005 9.18268e-05 0)
(0.999191 -0.000509687 0)
(0.99992 0.000371156 0)
(0.999402 0.000596832 0)
(1.00134 -0.000229012 0)
(0.999629 -0.000678113 0)
(0.999076 -0.000195745 0)
(0.998584 3.66962e-05 0)
(0.999958 0.000127618 0)
(0.999705 0.000568217 0)
(0.999859 0.00113579 0)
(0.999783 0.00131321 0)
(1.00049 0.000978163 0)
(1.00071 0.000693991 0)
(1.00113 0.000441735 0)
(1.00129 0.000325954 0)
(1.00163 4.91957e-05 0)
(1.00155 -6.55563e-05 0)
(1.00133 -0.000222946 0)
(1.00079 -9.61379e-05 0)
(1.00047 0.0001093 0)
(0.999251 -0.000401119 0)
(1.00003 0.000353061 0)
(0.999396 0.000507903 0)
(1.00127 -0.000218871 0)
(0.999736 -0.000568303 0)
(0.999253 3.36497e-05 0)
(0.998723 0.000276099 0)
(1.00011 0.000232909 0)
(0.999972 0.00050714 0)
(1.00011 0.000986721 0)
(0.999911 0.00124751 0)
(1.00053 0.000983724 0)
(1.00077 0.000719953 0)
(1.00123 0.000433075 0)
(1.00141 0.000334523 0)
(1.00175 8.45607e-05 0)
(1.0017 1.23683e-05 0)
(1.00156 -0.000161095 0)
(1.00108 -6.45387e-05 0)
(1.00045 0.000158844 0)
(0.999319 -0.00042574 0)
(1.00012 0.000227061 0)
(0.999384 0.000537143 0)
(1.00122 -0.0001142 0)
(0.99987 -0.000449998 0)
(0.999452 0.000223789 0)
(0.998851 0.000504034 0)
(1.00023 0.000355976 0)
(1.00021 0.000475169 0)
(1.00036 0.000836373 0)
(1.00008 0.00115128 0)
(1.00058 0.000985095 0)
(1.00082 0.000756273 0)
(1.00132 0.000447172 0)
(1.00153 0.000347619 0)
(1.00188 0.000108216 0)
(1.00186 6.37845e-05 0)
(1.00177 -8.98034e-05 0)
(1.00135 -3.95525e-05 0)
(1.00043 0.000178475 0)
(0.999363 -0.000367859 0)
(1.00027 0.000130122 0)
(0.999434 0.000564264 0)
(1.00117 -9.0549e-06 0)
(1.00001 -0.000375028 0)
(0.999675 0.000318174 0)
(0.99898 0.000697125 0)
(1.00031 0.000491069 0)
(1.0004 0.000472131 0)
(1.00062 0.00071113 0)
(1.00028 0.00102983 0)
(1.00067 0.000963699 0)
(1.00088 0.00079241 0)
(1.0014 0.000475253 0)
(1.00164 0.000363135 0)
(1.00202 0.000121881 0)
(1.00204 7.93466e-05 0)
(1.00197 -4.71066e-05 0)
(1.00161 -2.60957e-05 0)
(1.00041 0.000187491 0)
(0.999415 -0.000238925 0)
(1.00037 0.000144959 0)
(0.999465 0.000543848 0)
(1.00113 9.1154e-05 0)
(1.00015 -0.00032351 0)
(0.999924 0.000330079 0)
(0.999128 0.00083825 0)
(1.00037 0.000644879 0)
(1.00056 0.00050566 0)
(1.00085 0.00061371 0)
(1.0005 0.000906506 0)
(1.0008 0.000898194 0)
(1.00095 0.000819115 0)
(1.00148 0.000510727 0)
(1.00174 0.000388729 0)
(1.00214 0.000143518 0)
(1.00221 8.65056e-05 0)
(1.00217 -3.23446e-05 0)
(1.00185 -3.28565e-06 0)
(1.00039 0.000215784 0)
(0.999446 -0.000172963 0)
(1.00049 0.000104269 0)
(0.999528 0.000570021 0)
(1.00107 0.000235115 0)
(1.00026 -0.000235157 0)
(1.00019 0.000294641 0)
(0.999304 0.000907636 0)
(1.00042 0.000786867 0)
(1.00067 0.000577783 0)
(1.00106 0.000545028 0)
(1.00072 0.00079508 0)
(1.00096 0.000808378 0)
(1.00105 0.000809436 0)
(1.00155 0.000539823 0)
(1.00184 0.000410222 0)
(1.00226 0.000163545 0)
(1.00237 8.97292e-05 0)
(1.00238 -4.90264e-05 0)
(1.00207 2.54431e-06 0)
(1.00038 0.000221765 0)
(0.999481 -7.66456e-05 0)
(1.00059 0.000110598 0)
(0.9996 0.000547152 0)
(1.00103 0.000365348 0)
(1.00036 -8.87289e-05 0)
(1.00045 0.000259474 0)
(0.999517 0.00091278 0)
(1.00048 0.000904051 0)
(1.00074 0.000677818 0)
(1.00123 0.000520382 0)
(1.00095 0.000700835 0)
(1.00115 0.000721752 0)
(1.00118 0.000766512 0)
(1.00163 0.000554745 0)
(1.00192 0.000435972 0)
(1.00236 0.000179936 0)
(1.0025 0.000104667 0)
(1.00257 -6.86701e-05 0)
(1.00229 -1.57125e-05 0)
(1.00037 0.000210001 0)
(0.999496 6.95262e-05 0)
(1.00068 0.000145155 0)
(0.999687 0.000507254 0)