/*--------------------------------*- C++ -*----------------------------------*\
| =========                 |                                                 |
| \\      /  F ield         | OpenFOAM: The Open Source CFD Toolbox           |
|  \\    /   O peration     | Version:  2506                                  |
|   \\  /    A nd           | Website:  www.openfoam.com                      |
|    \\/     M anipulation  |                                                 |
\*---------------------------------------------------------------------------*/
FoamFile
{
    version     2.0;
    format      ascii;
    arch        "LSB;label=32;scalar=64";
    class       volScalarField;
    location    "9.4";
    object      p;
}
// * * * * * * * * * * * * * * * * * * * * * * * * * * * * * * * * * * * * * //

dimensions      [0 2 -2 0 0 0 0];

internalField   nonuniform List<scalar> 
9600
(
-7.01874e-10
-0.00526854
-0.00438782
-0.00496989
-0.00310796
0.00020801
-0.00141265
-0.00469833
-0.00771248
-0.00741387
-0.00764136
-0.00596632
-0.00606823
-0.00650829
-0.00614845
-0.00602073
-0.00347193
-0.00285532
0.00128287
0.00785642
3.20555e-06
-0.00527325
-0.00438969
-0.00496376
-0.00311147
0.000183224
-0.00138806
-0.00471469
-0.00768444
-0.00739768
-0.00765799
-0.00594766
-0.00607414
-0.00651661
-0.00615035
-0.00603022
-0.00346245
-0.00290484
0.00157856
0.00739904
6.54266e-06
-0.0052799
-0.00438836
-0.00495433
-0.00312194
0.000154178
-0.00134881
-0.0047418
-0.00763396
-0.00737282
-0.00767486
-0.0059138
-0.00609293
-0.00652168
-0.00616027
-0.00603532
-0.00347738
-0.0029489
0.00171951
0.00676639
5.64942e-06
-0.0052895
-0.00438379
-0.00494542
-0.00313524
0.000117385
-0.00132911
-0.00478216
-0.00757107
-0.00733967
-0.00768614
-0.00588898
-0.00612019
-0.00652628
-0.00617904
-0.00604319
-0.00349813
-0.0029916
0.00174306
0.00622083
-2.39677e-07
-0.00530252
-0.00437732
-0.00493715
-0.00315053
6.90594e-05
-0.00133412
-0.00483477
-0.00749269
-0.00730285
-0.00770038
-0.00588032
-0.00615411
-0.00653751
-0.00620303
-0.00605787
-0.00351245
-0.0030433
0.0017526
0.00572065
-1.06906e-05
-0.00531931
-0.00436946
-0.00492903
-0.00316706
7.33064e-06
-0.00135848
-0.00489791
-0.00740143
-0.00727031
-0.00772245
-0.00588388
-0.0061927
-0.00655372
-0.00622645
-0.00607402
-0.00352405
-0.00309633
0.00172536
0.00524863
-2.53324e-05
-0.00533964
-0.00436007
-0.00492079
-0.00318418
-6.76178e-05
-0.00139861
-0.00496941
-0.0073024
-0.00724417
-0.0077519
-0.00589394
-0.00623201
-0.00657162
-0.00624436
-0.00608956
-0.00353531
-0.00314681
0.00165546
0.00479757
-4.37689e-05
-0.0053629
-0.00434913
-0.0049122
-0.00320183
-0.000154964
-0.00145147
-0.00504594
-0.00719981
-0.00722195
-0.00778709
-0.00590625
-0.00626996
-0.00659104
-0.00625472
-0.00610367
-0.00354766
-0.00319312
0.00153919
0.00436267
-6.54698e-05
-0.00538845
-0.00433683
-0.00490312
-0.00322045
-0.000253722
-0.00151311
-0.0051242
-0.00709594
-0.00720066
-0.00782701
-0.00591889
-0.00630635
-0.00661279
-0.00625772
-0.00611547
-0.00356298
-0.00323553
0.00137537
0.0039401
-8.98734e-05
-0.00541587
-0.00432344
-0.00489344
-0.00324065
-0.000362796
-0.00157992
-0.00520188
-0.00699194
-0.0071781
-0.0078712
-0.00593152
-0.00634099
-0.00663747
-0.00625457
-0.00612412
-0.003584
-0.00327562
0.00116633
0.00352637
-0.000116491
-0.00544495
-0.00430935
-0.00488315
-0.0032629
-0.000480969
-0.00164955
-0.00527779
-0.00688864
-0.0071529
-0.00791966
-0.00594426
-0.0063734
-0.00666574
-0.00624662
-0.00612916
-0.00361431
-0.00331528
0.000916632
0.00311756
-0.00014494
-0.00547565
-0.00429507
-0.00487231
-0.00328742
-0.000606835
-0.00172078
-0.00535174
-0.00678715
-0.0071244
-0.00797249
-0.00595742
-0.00640342
-0.00669793
-0.00623538
-0.00613113
-0.00365676
-0.00335639
0.000631089
0.00270874
-0.00017494
-0.00550798
-0.0042812
-0.00486096
-0.00331428
-0.000738857
-0.00179319
-0.00542424
-0.00668886
-0.00709227
-0.00802976
-0.00597164
-0.00643101
-0.00673382
-0.00622273
-0.00613081
-0.00371262
-0.00340236
0.000314277
0.00229533
-0.000206309
-0.00554198
-0.00426826
-0.00484913
-0.00334349
-0.000875586
-0.00186688
-0.00549602
-0.00659498
-0.00705607
-0.00809156
-0.00598775
-0.00645598
-0.00677327
-0.00621074
-0.00612895
-0.00378205
-0.00345793
-3.04167e-05
0.00187465
-0.000238956
-0.00557765
-0.00425674
-0.00483679
-0.00337517
-0.00101588
-0.00194226
-0.00556766
-0.00650646
-0.00701531
-0.00815792
-0.00600646
-0.00647826
-0.00681664
-0.00620144
-0.00612746
-0.00386442
-0.00352617
-0.000400569
0.00144526
-0.000272871
-0.00561496
-0.00424709
-0.00482393
-0.00340944
-0.001159
-0.00201986
-0.00563932
-0.00642408
-0.00696962
-0.00822874
-0.00602848
-0.00649787
-0.00686452
-0.00619613
-0.006129
-0.00395886
-0.00360842
-0.000793409
0.00100499
-0.000308112
-0.00565378
-0.00423978
-0.00481045
-0.00344655
-0.00130448
-0.00210023
-0.00571082
-0.00634877
-0.00691873
-0.00830366
-0.00605458
-0.00651479
-0.00691702
-0.0061953
-0.0061366
-0.00406527
-0.0037051
-0.00120675
0.000551655
-0.000344788
-0.00569392
-0.00423518
-0.00479626
-0.0034868
-0.00145196
-0.00218377
-0.00578197
-0.00628161
-0.00686232
-0.00838215
-0.00608546
-0.0065286
-0.00697496
-0.00619915
-0.00615278
-0.00418507
-0.00381445
-0.00163825
8.3949e-05
-0.000383059
-0.00573514
-0.00423365
-0.00478126
-0.00353059
-0.00160098
-0.00227086
-0.00585259
-0.0062236
-0.00680028
-0.00846366
-0.00612181
-0.00653846
-0.00704006
-0.00620755
-0.00617803
-0.00432062
-0.00393382
-0.00208396
-0.000399451
-0.00042313
-0.00577712
-0.00423555
-0.00476532
-0.00357833
-0.00175105
-0.00236187
-0.00592239
-0.00617577
-0.0067328
-0.00854732
-0.0061648
-0.00654351
-0.00711338
-0.00622033
-0.00621158
-0.00447528
-0.00406155
-0.00253938
-0.000909737
-0.000465243
-0.00581953
-0.00424125
-0.00474835
-0.00363044
-0.00190173
-0.00245718
-0.00599101
-0.00613912
-0.00666025
-0.00863212
-0.00621614
-0.00654256
-0.00719576
-0.00623844
-0.00625206
-0.00465304
-0.00419589
-0.00299909
-0.00144929
-0.000509667
-0.00586203
-0.00425119
-0.0047302
-0.00368741
-0.00205265
-0.00255711
-0.00605819
-0.00611457
-0.00658318
-0.00871686
-0.00627767
-0.00653438
-0.00728781
-0.00626435
-0.00629662
-0.00485747
-0.00433723
-0.0034547
-0.00202003
-0.000556696
-0.0059043
-0.00426585
-0.00471076
-0.00374964
-0.00220359
-0.00266202
-0.00612363
-0.00610292
-0.00650255
-0.00879971
-0.00635154
-0.00651802
-0.00738913
-0.00630153
-0.00634082
-0.00509028
-0.00448934
-0.00389475
-0.00262143
-0.000606641
-0.00594602
-0.00428575
-0.00468992
-0.00381758
-0.00235424
-0.00277236
-0.00618702
-0.00610475
-0.00641997
-0.00887824
-0.00644007
-0.00649298
-0.00749846
-0.00635413
-0.00638008
-0.0053504
-0.00466746
-0.00430878
-0.00324853
-0.000659816
-0.0059869
-0.00431147
-0.00466756
-0.0038917
-0.0025044
-0.00288834
-0.00624846
-0.00612025
-0.00633741
-0.00894985
-0.00654494
-0.00645999
-0.00761334
-0.00642732
-0.00641223
-0.00563409
-0.00487967
-0.00468964
-0.00389013
-0.000716548
-0.00602659
-0.00434366
-0.00464361
-0.00397227
-0.00265406
-0.00301011
-0.00630833
-0.00614903
-0.00625718
-0.00901215
-0.00666756
-0.00642078
-0.00773009
-0.00652677
-0.00643686
-0.00593444
-0.0051371
-0.00503271
-0.00452608
-0.000777194
-0.00606471
-0.00438298
-0.00461804
-0.00405943
-0.00280333
-0.00313758
-0.00636711
-0.00619037
-0.00618176
-0.00906323
-0.00680922
-0.00637772
-0.00784423
-0.00665768
-0.00645559
-0.00624055
-0.00544847
-0.00534449
-0.00513343
-0.000842174
-0.00610088
-0.0044301
-0.00459089
-0.00415333
-0.00295248
-0.00327017
-0.00642568
-0.00624324
-0.0061135
-0.0091017
-0.00697011
-0.00633426
-0.00795081
-0.00682353
-0.00647434
-0.00653946
-0.00581573
-0.00564224
-0.00569006
-0.000911922
-0.00613469
-0.00448565
-0.00456224
-0.00425392
-0.00310208
-0.003407
-0.0064853
-0.00630614
-0.00605467
-0.00912666
-0.00714919
-0.00629514
-0.00804535
-0.00702596
-0.00650145
-0.00681907
-0.00623568
-0.00594831
-0.00617876
-0.000986875
-0.00616572
-0.00455036
-0.00453228
-0.00436078
-0.00325295
-0.00354687
-0.00654747
-0.00637754
-0.00600729
-0.00913812
-0.00734449
-0.00626538
-0.00812419
-0.00726498
-0.00654687
-0.00706857
-0.00669847
-0.00628715
-0.00659647
-0.00106751
-0.0061935
-0.00462491
-0.00450134
-0.00447331
-0.00340629
-0.003688
-0.00661263
-0.00645678
-0.00597266
-0.00913698
-0.00755425
-0.00625014
-0.00818366
-0.00753772
-0.00662267
-0.0072811
-0.00718809
-0.00667909
-0.00695441
-0.00115433
-0.00621753
-0.00470986
-0.00447001
-0.0045907
-0.00356373
-0.00382814
-0.00668435
-0.00654431
-0.00595097
-0.00912462
-0.00777718
-0.00625439
-0.00822122
-0.00783881
-0.00674038
-0.00745491
-0.0076842
-0.00713571
-0.00727863
-0.00124789
-0.00623727
-0.00480574
-0.0044391
-0.00471171
-0.00372725
-0.00396505
-0.00676179
-0.00664072
-0.00594213
-0.0091029
-0.00801144
-0.00628233
-0.00823676
-0.00816059
-0.00690928
-0.0075943
-0.00816339
-0.00765755
-0.00760717
-0.00134875
-0.00625224
-0.00491291
-0.00440957
-0.00483457
-0.00389903
-0.00409723
-0.00684427
-0.00674705
-0.00594631
-0.00907313
-0.00825529
-0.00633803
-0.00823025
-0.00849489
-0.00713727
-0.00770935
-0.00860307
-0.00823375
-0.0079799
-0.0014575
-0.00626194
-0.00503144
-0.00438293
-0.00495697
-0.00408137
-0.00422402
-0.00692995
-0.0068654
-0.00596395
-0.00903569
-0.00850731
-0.00642664
-0.00820257
-0.00883229
-0.00743025
-0.00781501
-0.00898531
-0.00884141
-0.0084238
-0.00157477
-0.00626588
-0.00516135
-0.00436105
-0.00507639
-0.00427624
-0.00434561
-0.00701596
-0.00699782
-0.00599636
-0.0089904
-0.00876566
-0.00655438
-0.00815712
-0.00916081
-0.00778924
-0.00792924
-0.00930145
-0.00945093
-0.00894506
-0.00170115
-0.00626374
-0.0053024
-0.00434621
-0.00518996
-0.00448493
-0.00446335
-0.00709869
-0.00714635
-0.00604589
-0.00893678
-0.00902797
-0.0067261
-0.00809889
-0.00946819
-0.00821098
-0.00807155
-0.00955201
-0.0100329
-0.0095296
-0.0018372
-0.00625537
-0.00545391
-0.00434116
-0.00529465
-0.00470794
-0.00457992
-0.00717434
-0.0073125
-0.00611581
-0.00887404
-0.0092906
-0.00694614
-0.00803584
-0.00974037
-0.00868862
-0.00826356
-0.00974347
-0.0105635
-0.0101531
-0.00198342
-0.00624078
-0.00561509
-0.0043488
-0.00538786
-0.00494502
-0.00469932
-0.00723877
-0.00749552
-0.00621132
-0.00880237
-0.00954737
-0.00721837
-0.0079808
-0.00996336
-0.00920893
-0.00852585
-0.00988883
-0.0110262
-0.01079
-0.00214027
-0.00622034
-0.00578631
-0.00437244
-0.00546762
-0.00519462
-0.00482634
-0.0072883
-0.00769241
-0.00633866
-0.00872454
-0.00979069
-0.00754414
-0.00795042
-0.0101273
-0.0097513
-0.00887287
-0.0100089
-0.0114077
-0.0114174
-0.0023082
-0.00619448
-0.00595726
-0.00441586
-0.00553294
-0.00545333
-0.00496653
-0.00732107
-0.00789923
-0.00650322
-0.00864534
-0.0100125
-0.00792079
-0.00796255
-0.0102292
-0.0102893
-0.00931047
-0.0101353
-0.0116996
-0.0120099
-0.00248751
-0.00616363
-0.00612936
-0.00448302
-0.00558367
-0.00571641
-0.00512643
-0.0073379
-0.00810866
-0.00670937
-0.00857219
-0.0102046
-0.00834112
-0.00803522
-0.0102758
-0.0107918
-0.00983039
-0.0103084
-0.011908
-0.012536
-0.00267845
-0.00612875
-0.00629946
-0.00457769
-0.00562091
-0.00597756
-0.00531247
-0.00734166
-0.00831124
-0.00695904
-0.0085154
-0.0103604
-0.00879363
-0.00818322
-0.0102837
-0.0112297
-0.0104088
-0.0105617
-0.0120596
-0.0129694
-0.00288099
-0.00609014
-0.00646398
-0.00470282
-0.00564713
-0.00623016
-0.00552933
-0.00733789
-0.00849817
-0.00724974
-0.00848743
-0.0104762
-0.0092629
-0.00841528
-0.0102758
-0.0115865
-0.0110145
-0.0109089
-0.0121963
-0.0133034
-0.00309496
-0.00605204
-0.00661959
-0.00486015
-0.00566678
-0.0064664
-0.00577876
-0.00733711
-0.00866085
-0.00757486
-0.00850282
-0.0105527
-0.00972988
-0.00873284
-0.0102795
-0.0118578
-0.0116121
-0.0113446
-0.0123617
-0.013556
-0.00331998
-0.00601594
-0.00676289
-0.00504968
-0.00568654
-0.00667857
-0.00605908
-0.00735324
-0.00879474
-0.00792324
-0.00857417
-0.0105979
-0.0101739
-0.00912657
-0.0103238
-0.012051
-0.0121678
-0.0118498
-0.0125859
-0.0137591
-0.00355526
-0.00598515
-0.00689056
-0.00526973
-0.00571508
-0.00686197
-0.00636591
-0.00739998
-0.00890207
-0.00827936
-0.00870664
-0.0106263
-0.0105769
-0.00957672
-0.0104333
-0.0121871
-0.0126578
-0.0123983
-0.0128811
-0.0139476
-0.00379961
-0.00596357
-0.00699998
-0.00551667
-0.00576282
-0.0070147
-0.00668849
-0.00748673
-0.00898801
-0.00862979
-0.00889809
-0.0106542
-0.0109288
-0.0100599
-0.0106214
-0.0122967
-0.013071
-0.0129573
-0.0132462
-0.0141499
-0.0040514
-0.00595519
-0.00708987
-0.00578419
-0.0058404
-0.00713903
-0.00701211
-0.0076165
-0.00906278
-0.00896534
-0.00913984
-0.0106978
-0.0112293
-0.0105535
-0.0108881
-0.012411
-0.0134112
-0.0134946
-0.013669
-0.0143868
-0.00430878
-0.00596345
-0.0071608
-0.00606399
-0.00595534
-0.00724286
-0.00732483
-0.00778727
-0.0091389
-0.00928002
-0.00942055
-0.0107722
-0.0114859
-0.0110362
-0.0112219
-0.0125561
-0.0136945
-0.0139877
-0.0141284
-0.0146701
-0.00456983
-0.00599082
-0.00721593
-0.00634699
-0.00611091
-0.00733977
-0.00761942
-0.0079923
-0.00922649
-0.00957188
-0.00972925
-0.0108863
-0.0117096
-0.0114914
-0.0116059
-0.0127481
-0.0139432
-0.0144288
-0.0145983
-0.0149995
-0.0048324
-0.00603919
-0.00725895
-0.00662457
-0.00630685
-0.00744373
-0.00789476
-0.00822253
-0.00933121
-0.00984151
-0.0100553
-0.0110435
-0.0119139
-0.0119102
-0.0120197
-0.0129912
-0.0141797
-0.0148225
-0.0150578
-0.0153632
-0.00509451
-0.00610996
-0.00729808
-0.00689055
-0.00653823
-0.00756351
-0.00815211
-0.0084712
-0.00945578
-0.0100905
-0.0103887
-0.0112442
-0.012114
-0.0122915
-0.0124425
-0.0132793
-0.0144217
-0.0151786
-0.015498
-0.0157467
-0.00535446
-0.00620269
-0.00733914
-0.00714261
-0.00679836
-0.00770676
-0.00839699
-0.00873361
-0.00960133
-0.0103196
-0.010719
-0.0114838
-0.0123234
-0.0126414
-0.0128581
-0.0136001
-0.0146783
-0.0155082
-0.0159165
-0.0161391
-0.00561185
-0.00631599
-0.00738589
-0.00737857
-0.00707829
-0.00787721
-0.00863953
-0.00900782
-0.00976948
-0.0105334
-0.0110386
-0.0117548
-0.0125518
-0.0129691
-0.0132582
-0.0139407
-0.0149507
-0.0158182
-0.0163112
-0.0165354
-0.00586635
-0.00645051
-0.00744269
-0.00759897
-0.00736946
-0.0080749
-0.00888277
-0.00929188
-0.00995902
-0.0107354
-0.0113416
-0.0120473
-0.0128058
-0.0132864
-0.0136413
-0.0142899
-0.0152375
-0.0161139
-0.0166795
-0.0169324
-0.00611539
-0.00660626
-0.00751698
-0.00780733
-0.00766993
-0.00829591
-0.00912784
-0.00958396
-0.0101687
-0.0109291
-0.0116224
-0.0123507
-0.0130849
-0.0136031
-0.0140099
-0.0146397
-0.0155368
-0.0164035
-0.0170188
-0.0173184
-0.00635748
-0.00676136
-0.0076117
-0.00802823
-0.00798173
-0.00853429
-0.00937296
-0.00988275
-0.0104042
-0.0111234
-0.0118806
-0.0126531
-0.0133825
-0.0139263
-0.0143707
-0.0149851
-0.0158415
-0.0166932
-0.0173318
-0.0176793
-0.00659791
-0.00693954
-0.00772672
-0.00824485
-0.00829203
-0.00878376
-0.00961299
-0.0101823
-0.0106671
-0.0113284
-0.012119
-0.0129439
-0.0136911
-0.0142589
-0.0147324
-0.0153292
-0.0161455
-0.0169847
-0.0176301
-0.0180108
-0.00683825
-0.00712996
-0.00786063
-0.00845664
-0.0085999
-0.00904399
-0.00984971
-0.0104827
-0.010959
-0.0115582
-0.0123475
-0.0132165
-0.0139997
-0.0145963
-0.0150966
-0.0156793
-0.0164477
-0.0172713
-0.0179226
-0.0183179
-0.00707966
-0.00733317
-0.00800944
-0.00866479
-0.00890601
-0.00931936
-0.0100875
-0.0107774
-0.0112732
-0.0118173
-0.0125742
-0.0134687
-0.0142966
-0.0149325
-0.0154591
-0.0160369
-0.0167557
-0.0175487
-0.0182083
-0.0186098
-0.00732369
-0.00754936
-0.00817546
-0.00887128
-0.00920773
-0.0096077
-0.010328
-0.011057
-0.0115967
-0.0121064
-0.012812
-0.0137055
-0.0145743
-0.015261
-0.0158167
-0.0163964
-0.0170776
-0.0178245
-0.0184843
-0.0188933
-0.0075706
-0.00777925
-0.00835617
-0.00907609
-0.00950315
-0.00990686
-0.0105764
-0.0113236
-0.0119173
-0.0124199
-0.0130728
-0.0139367
-0.0148297
-0.0155722
-0.0161673
-0.0167511
-0.0174086
-0.0181079
-0.0187501
-0.0191687
-0.00781761
-0.0080108
-0.00855701
-0.00928959
-0.00979361
-0.0102139
-0.0108353
-0.0115812
-0.0122234
-0.0127454
-0.0133588
-0.014174
-0.0150671
-0.0158572
-0.0165035
-0.0170991
-0.0177397
-0.0184014
-0.0190104
-0.0194326
-0.00806764
-0.00825524
-0.00877269
-0.00950642
-0.0100763
-0.0105249
-0.0111061
-0.0118337
-0.0125131
-0.0130699
-0.013663
-0.0144256
-0.015295
-0.0161137
-0.0168128
-0.017435
-0.0180658
-0.0187012
-0.0192746
-0.0196866
-0.00832101
-0.00850483
-0.0090033
-0.00972967
-0.0103498
-0.0108343
-0.011388
-0.0120868
-0.0127873
-0.013384
-0.0139775
-0.0146959
-0.0155275
-0.016352
-0.0170889
-0.0177456
-0.0183777
-0.018996
-0.0195428
-0.0199348
-0.00857883
-0.0087623
-0.00924383
-0.00995845
-0.0106167
-0.0111415
-0.0116819
-0.0123482
-0.0130506
-0.013678
-0.0142839
-0.0149707
-0.0157639
-0.0165817
-0.0173418
-0.0180262
-0.0186672
-0.0192748
-0.0198033
-0.0201757
-0.00883945
-0.00901989
-0.00949432
-0.0101996
-0.0108814
-0.0114416
-0.011978
-0.0126153
-0.0133082
-0.0139581
-0.0145783
-0.0152416
-0.0159944
-0.0167964
-0.0175735
-0.0182823
-0.0189375
-0.0195416
-0.0200574
-0.0204134
-0.00910473
-0.00928321
-0.00975207
-0.0104474
-0.0111423
-0.0117324
-0.012273
-0.0128858
-0.0135609
-0.0142241
-0.0148617
-0.0155119
-0.016224
-0.0169893
-0.0177656
-0.0184959
-0.0191719
-0.0197875
-0.0203024
-0.0206514
-0.00937473
-0.00955412
-0.0100141
-0.0107006
-0.0114017
-0.0120167
-0.0125665
-0.0131594
-0.0138089
-0.0144697
-0.015118
-0.0157665
-0.0164536
-0.0171769
-0.0179285
-0.0186625
-0.0193507
-0.0199834
-0.0205112
-0.0208667
-0.0096454
-0.00982032
-0.0102806
-0.0109638
-0.0116639
-0.0122932
-0.012854
-0.0134328
-0.0140576
-0.0147068
-0.015351
-0.0159908
-0.0166611
-0.0173521
-0.0180685
-0.0187898
-0.0194769
-0.0201117
-0.0206512
-0.0210271
-0.00991955
-0.0100929
-0.0105481
-0.0112261
-0.0119241
-0.0125619
-0.0131356
-0.0137061
-0.0143044
-0.0149369
-0.0155679
-0.0161872
-0.0168326
-0.017493
-0.018176
-0.0188723
-0.0195463
-0.0201731
-0.0207114
-0.021096
-0.0101969
-0.0103705
-0.0108177
-0.0114878
-0.0121804
-0.0128211
-0.0134044
-0.0139746
-0.0145545
-0.015159
-0.0157635
-0.0163486
-0.0169566
-0.0175836
-0.0182327
-0.0189032
-0.019567
-0.0201906
-0.0207365
-0.0211227
-0.0104719
-0.0106462
-0.0110921
-0.011754
-0.0124359
-0.0130707
-0.0136563
-0.0142337
-0.0148236
-0.0154044
-0.0159514
-0.0164642
-0.016987
-0.0175309
-0.0181048
-0.0187191
-0.019365
-0.0200195
-0.0206618
-0.0212241
-0.0107423
-0.0109204
-0.0113687
-0.012021
-0.0126897
-0.0133168
-0.0138914
-0.0144746
-0.0151224
-0.0157749
-0.0163098
-0.0167298
-0.0171401
-0.0175799
-0.0180385
-0.0184696
-0.0188233
-0.0190608
-0.0192128
-0.0193683
-0.0110232
-0.0111818
-0.011614
-0.0122483
-0.0129243
-0.0135648
-0.014101
-0.0145923
-0.0151253
-0.0156939
-0.0162474
-0.016753
-0.0172343
-0.0176864
-0.018092
-0.0184514
-0.0187862
-0.0191116
-0.0194526
-0.0198502
-0.0113484
-0.0115376
-0.0118793
-0.012405
-0.0129894
-0.0135723
-0.0141202
-0.0146717
-0.0152618
-0.0158664
-0.0164681
-0.0170234
-0.0175044
-0.0179355
-0.0183041
-0.0185974
-0.0188207
-0.0189812
-0.0191227
-0.0193226
-0.0115265
-0.0116378
-0.011994
-0.0125347
-0.0131008
-0.0136713
-0.0142346
-0.0147965
-0.0153895
-0.0159825
-0.0165284
-0.0170233
-0.0174696
-0.0179036
-0.0183828
-0.0189202
-0.0195567
-0.0202737
-0.0210124
-0.0216811
-0.0117921
-0.0119419
-0.0122221
-0.0126633
-0.0131661
-0.0137148
-0.0142799
-0.0148668
-0.0154864
-0.0161078
-0.0166881
-0.0172041
-0.0176672
-0.0180654
-0.0184014
-0.0186623
-0.0188543
-0.0190124
-0.019195
-0.0194912
-0.0119599
-0.012092
-0.012343
-0.0127383
-0.013202
-0.0137381
-0.0143057
-0.0149099
-0.0155573
-0.0161984
-0.0168005
-0.0173202
-0.0177578
-0.01813
-0.0184652
-0.0187928
-0.0191323
-0.0194985
-0.0199004
-0.0203737
0.0198402
0.0084328
-0.00437713
-0.0128903
-0.0161971
-0.0164961
-0.0165697
-0.0174476
-0.0188938
-0.0203592
-0.0214169
-0.0219777
-0.0223677
-0.022903
-0.0235447
-0.0241979
-0.024885
-0.0255419
-0.0261251
-0.0267702
-0.027522
-0.028261
-0.0289213
-0.0295322
-0.0301716
-0.030919
-0.0317099
-0.032427
-0.0331198
-0.0339302
-0.0348864
-0.0359424
-0.0370084
-0.0379721
-0.038798
-0.039545
-0.04027
-0.041006
-0.0417879
-0.0426355
-0.0435156
-0.044389
-0.0452881
-0.0462939
-0.0473803
-0.048433
-0.0494282
-0.0503791
-0.0513084
-0.0522582
-0.0532604
-0.0543165
-0.0554133
-0.0565088
-0.0576065
-0.0587046
-0.0598359
-0.0609961
-0.0621741
-0.0633768
-0.0646272
-0.065889
-0.0671221
-0.0683774
-0.0696602
-0.0709479
-0.0722631
-0.0736305
-0.0750201
-0.0764179
-0.0778463
-0.079294
-0.0807829
-0.0822808
-0.083797
-0.085331
-0.0869351
-0.0885972
-0.0902822
-0.0919784
-0.0936646
-0.0953943
-0.0971504
-0.098968
-0.100806
-0.102706
-0.104605
-0.106548
-0.108508
-0.110536
-0.112585
-0.11464
-0.116795
-0.118931
-0.12113
-0.12331
-0.125513
-0.127667
-0.12967
-0.131754
0.01796
0.00824233
-0.0042939
-0.0127629
-0.016111
-0.0164491
-0.0165373
-0.0174255
-0.0188798
-0.0203502
-0.0214112
-0.0219735
-0.0223636
-0.0228989
-0.0235408
-0.0241943
-0.0248819
-0.0255392
-0.0261224
-0.0267674
-0.0275194
-0.0282588
-0.0289192
-0.0295301
-0.0301694
-0.0309169
-0.031708
-0.0324253
-0.033118
-0.0339284
-0.0348846
-0.0359408
-0.037007
-0.0379709
-0.0387969
-0.0395439
-0.040269
-0.0410051
-0.041787
-0.0426347
-0.0435148
-0.0443883
-0.0452874
-0.0462932
-0.0473797
-0.0484325
-0.0494277
-0.0503786
-0.0513079
-0.0522577
-0.05326
-0.0543161
-0.0554129
-0.0565085
-0.0576062
-0.0587043
-0.0598356
-0.0609958
-0.0621738
-0.0633765
-0.0646269
-0.0658887
-0.0671219
-0.0683771
-0.06966
-0.0709476
-0.0722628
-0.0736302
-0.0750199
-0.0764177
-0.0778461
-0.0792938
-0.0807827
-0.0822806
-0.0837969
-0.0853308
-0.0869349
-0.088597
-0.090282
-0.0919783
-0.0936645
-0.0953941
-0.0971503
-0.0989679
-0.100806
-0.102706
-0.104604
-0.106548
-0.108508
-0.110536
-0.112585
-0.11464
-0.116795
-0.118931
-0.12113
-0.12331
-0.125513
-0.127667
-0.12967
-0.131754
0.0165996
0.00816984
-0.00408905
-0.0125219
-0.015969
-0.0163986
-0.0165149
-0.0174045
-0.0188593
-0.0203331
-0.0213989
-0.0219656
-0.0223587
-0.0228956
-0.0235376
-0.0241907
-0.0248786
-0.0255366
-0.0261201
-0.0267652
-0.0275173
-0.0282568
-0.0289174
-0.0295284
-0.0301676
-0.030915
-0.0317063
-0.0324237
-0.0331164
-0.0339268
-0.034883
-0.0359394
-0.037006
-0.0379701
-0.0387961
-0.039543
-0.040268
-0.0410041
-0.0417861
-0.0426339
-0.0435142
-0.0443876
-0.0452867
-0.0462925
-0.0473792
-0.0484321
-0.0494273
-0.0503783
-0.0513075
-0.0522573
-0.0532596
-0.0543158
-0.0554126
-0.0565082
-0.0576059
-0.058704
-0.0598353
-0.0609956
-0.0621735
-0.0633763
-0.0646266
-0.0658885
-0.0671217
-0.0683769
-0.0696598
-0.0709474
-0.0722626
-0.07363
-0.0750197
-0.0764176
-0.0778459
-0.0792936
-0.0807825
-0.0822804
-0.0837967
-0.0853307
-0.0869347
-0.0885969
-0.0902819
-0.0919781
-0.0936644
-0.095394
-0.0971502
-0.0989678
-0.100806
-0.102705
-0.104604
-0.106548
-0.108508
-0.110536
-0.112585
-0.11464
-0.116795
-0.118931
-0.12113
-0.12331
-0.125513
-0.127667
-0.12967
-0.131754
0.0153012
0.00802923
-0.0038706
-0.012242
-0.0157906
-0.0163385
-0.01649
-0.0173773
-0.0188291
-0.020303
-0.0213725
-0.0219475
-0.0223495
-0.0228914
-0.0235342
-0.0241862
-0.0248738
-0.0255329
-0.0261177
-0.0267633
-0.0275152
-0.0282545
-0.0289155
-0.029527
-0.0301662
-0.0309134
-0.0317045
-0.032422
-0.0331147
-0.0339251
-0.0348813
-0.0359378
-0.0370049
-0.0379694
-0.0387953
-0.039542
-0.0402669
-0.041003
-0.0417851
-0.0426331
-0.0435134
-0.0443868
-0.0452859
-0.0462918
-0.0473786
-0.0484317
-0.049427
-0.0503779
-0.0513071
-0.0522569
-0.0532592
-0.0543154
-0.0554122
-0.0565079
-0.0576056
-0.0587037
-0.059835
-0.0609953
-0.0621732
-0.063376
-0.0646264
-0.0658883
-0.0671215
-0.0683767
-0.0696596
-0.0709472
-0.0722624
-0.0736298
-0.0750195
-0.0764174
-0.0778457
-0.0792934
-0.0807823
-0.0822803
-0.0837966
-0.0853305
-0.0869346
-0.0885967
-0.0902818
-0.091978
-0.0936642
-0.0953939
-0.09715
-0.0989677
-0.100806
-0.102705
-0.104604
-0.106547
-0.108508
-0.110536
-0.112585
-0.11464
-0.116795
-0.118931
-0.12113
-0.123309
-0.125513
-0.127667
-0.12967
-0.131754
0.0139817
0.007797
-0.00366132
-0.0119522
-0.0155998
-0.0162745
-0.0164653
-0.0173472
-0.0187913
-0.0202602
-0.0213307
-0.0219164
-0.0223328
-0.0228844
-0.0235297
-0.0241803
-0.0248668
-0.0255272
-0.0261145
-0.0267614
-0.0275128
-0.0282515
-0.0289133
-0.0295262
-0.0301657
-0.030912
-0.0317024
-0.0324201
-0.0331133
-0.0339237
-0.0348793
-0.0359357
-0.0370034
-0.0379685
-0.0387945
-0.0395407
-0.0402655
-0.0410017
-0.041784
-0.042632
-0.0435123
-0.0443857
-0.0452849
-0.0462909
-0.047378
-0.0484311
-0.0494265
-0.0503775
-0.0513066
-0.0522564
-0.0532587
-0.0543149
-0.0554119
-0.0565076
-0.0576053
-0.0587034
-0.0598346
-0.060995
-0.062173
-0.0633757
-0.0646261
-0.0658881
-0.0671212
-0.0683765
-0.0696594
-0.070947
-0.0722622
-0.0736296
-0.0750193
-0.0764172
-0.0778455
-0.0792933
-0.0807822
-0.0822801
-0.0837964
-0.0853303
-0.0869344
-0.0885966
-0.0902816
-0.0919779
-0.0936641
-0.0953937
-0.0971499
-0.0989675
-0.100806
-0.102705
-0.104604
-0.106547
-0.108508
-0.110536
-0.112585
-0.11464
-0.116794
-0.118931
-0.12113
-0.123309
-0.125513
-0.127667
-0.12967
-0.131755
0.0126548
0.00748769
-0.00345754
-0.0116558
-0.0154014
-0.0162077
-0.0164424
-0.0173172
-0.0187503
-0.0202109
-0.0212792
-0.0218755
-0.0223093
-0.0228736
-0.0235232
-0.0241727
-0.0248576
-0.0255195
-0.0261106
-0.0267594
-0.0275098
-0.0282473
-0.0289104
-0.0295259
-0.0301664
-0.0309111
-0.0317
-0.032418
-0.0331125
-0.0339228
-0.0348773
-0.0359329
-0.0370012
-0.0379673
-0.0387934
-0.0395391
-0.0402636
-0.0410001
-0.0417827
-0.0426308
-0.0435109
-0.0443843
-0.0452835
-0.0462898
-0.0473771
-0.0484304
-0.0494259
-0.0503769
-0.051306
-0.0522557
-0.0532581
-0.0543144
-0.0554114
-0.0565072
-0.0576049
-0.058703
-0.0598342
-0.0609946
-0.0621726
-0.0633754
-0.0646258
-0.0658879
-0.067121
-0.0683762
-0.0696591
-0.0709468
-0.0722619
-0.0736294
-0.0750191
-0.076417
-0.0778453
-0.079293
-0.080782
-0.08228
-0.0837962
-0.0853301
-0.0869342
-0.0885964
-0.0902815
-0.0919778
-0.093664
-0.0953936
-0.0971498
-0.0989674
-0.100806
-0.102705
-0.104604
-0.106547
-0.108508
-0.110536
-0.112584
-0.114639
-0.116794
-0.118931
-0.12113
-0.123309
-0.125513
-0.127667
-0.12967
-0.131755
0.0113391
0.0071113
-0.00326091
-0.0113551
-0.0151961
-0.0161376
-0.0164213
-0.017288
-0.018708
-0.020159
-0.0212237
-0.0218298
-0.0222815
-0.0228596
-0.0235142
-0.0241631
-0.0248466
-0.0255105
-0.0261061
-0.0267572
-0.0275058
-0.0282417
-0.0289065
-0.0295259
-0.0301682
-0.0309108
-0.0316972
-0.032416
-0.0331126
-0.0339232
-0.0348757
-0.0359298
-0.0369984
-0.0379656
-0.0387918
-0.0395368
-0.040261
-0.0409981
-0.0417813
-0.0426295
-0.0435093
-0.0443825
-0.0452819
-0.0462883
-0.0473758
-0.0484293
-0.0494251
-0.0503761
-0.0513051
-0.0522549
-0.0532574
-0.0543137
-0.0554108
-0.0565066
-0.0576044
-0.0587024
-0.0598337
-0.0609941
-0.0621722
-0.063375
-0.0646254
-0.0658876
-0.0671208
-0.068376
-0.0696589
-0.0709465
-0.0722617
-0.0736292
-0.0750189
-0.0764168
-0.0778451
-0.0792928
-0.0807817
-0.0822798
-0.083796
-0.0853299
-0.0869339
-0.0885962
-0.0902813
-0.0919776
-0.0936638
-0.0953934
-0.0971496
-0.0989672
-0.100806
-0.102705
-0.104604
-0.106547
-0.108507
-0.110536
-0.112584
-0.114639
-0.116794
-0.118931
-0.12113
-0.123309
-0.125513
-0.127667
-0.129671
-0.131756
0.01005
0.00667041
-0.00307953
-0.0110539
-0.0149844
-0.0160629
-0.0164017
-0.0172603
-0.0186647
-0.0201054
-0.0211662
-0.0217815
-0.022251
-0.0228431
-0.0235032
-0.0241518
-0.0248343
-0.0255007
-0.0261015
-0.0267547
-0.027501
-0.0282347
-0.0289016
-0.029526
-0.0301707
-0.030911
-0.0316943
-0.0324139
-0.0331135
-0.0339248
-0.0348751
-0.035927
-0.0369955
-0.0379635
-0.0387896
-0.0395334
-0.0402572
-0.0409952
-0.0417798
-0.0426282
-0.0435074
-0.0443805
-0.0452801
-0.0462867
-0.0473741
-0.0484278
-0.0494239
-0.050375
-0.051304
-0.0522539
-0.0532565
-0.0543129
-0.0554101
-0.056506
-0.0576037
-0.0587018
-0.059833
-0.0609935
-0.0621717
-0.0633745
-0.064625
-0.0658872
-0.0671205
-0.0683757
-0.0696585
-0.0709462
-0.0722614
-0.0736289
-0.0750187
-0.0764165
-0.0778449
-0.0792926
-0.0807815
-0.0822796
-0.0837958
-0.0853296
-0.0869337
-0.088596
-0.0902812
-0.0919774
-0.0936636
-0.0953932
-0.0971494
-0.098967
-0.100805
-0.102705
-0.104604
-0.106547
-0.108507
-0.110536
-0.112584
-0.114639
-0.116794
-0.11893
-0.12113
-0.123309
-0.125513
-0.127668
-0.129672
-0.131757
0.0088006
0.00616555
-0.00292222
-0.0107552
-0.0147662
-0.0159819
-0.0163825
-0.0172342
-0.0186209
-0.0200503
-0.021107
-0.0217314
-0.0222186
-0.0228248
-0.0234906
-0.0241392
-0.0248211
-0.0254905
-0.0260967
-0.026752
-0.0274955
-0.0282267
-0.0288958
-0.0295258
-0.0301734
-0.0309114
-0.0316913
-0.0324118
-0.033115
-0.0339274
-0.0348756
-0.035925
-0.0369932
-0.0379617
-0.038787
-0.0395289
-0.0402518
-0.0409912
-0.0417777
-0.0426268
-0.0435055
-0.0443785
-0.0452786
-0.0462851
-0.0473721
-0.0484258
-0.0494223
-0.0503735
-0.0513025
-0.0522526
-0.0532555
-0.054312
-0.0554091
-0.0565051
-0.057603
-0.0587009
-0.0598321
-0.0609927
-0.062171
-0.0633739
-0.0646243
-0.0658867
-0.0671201
-0.0683753
-0.0696581
-0.0709458
-0.0722611
-0.0736286
-0.0750184
-0.0764163
-0.0778447
-0.0792923
-0.0807813
-0.0822794
-0.0837956
-0.0853293
-0.0869334
-0.0885958
-0.090281
-0.0919773
-0.0936634
-0.095393
-0.0971492
-0.0989668
-0.100805
-0.102705
-0.104604
-0.106547
-0.108507
-0.110536
-0.112584
-0.114639
-0.116794
-0.11893
-0.121129
-0.123309
-0.125513
-0.127668
-0.129672
-0.131758
0.00760007
0.00559815
-0.00279679
-0.0104606
-0.0145401
-0.015892
-0.0163627
-0.0172106
-0.0185774
-0.019994
-0.0210463
-0.0216796
-0.0221845
-0.0228049
-0.0234766
-0.0241256
-0.0248071
-0.0254797
-0.0260918
-0.0267493
-0.0274898
-0.0282181
-0.0288895
-0.0295253
-0.0301763
-0.030912
-0.0316884
-0.0324098
-0.0331168
-0.0339308
-0.034877
-0.0359241
-0.036992
-0.037961
-0.0387848
-0.0395237
-0.0402451
-0.0409858
-0.0417747
-0.0426249
-0.0435035
-0.0443767
-0.0452775
-0.0462839
-0.0473701
-0.0484237
-0.0494204
-0.0503716
-0.0513006
-0.052251
-0.0532543
-0.0543109
-0.055408
-0.0565041
-0.057602
-0.0587
-0.059831
-0.0609916
-0.0621701
-0.063373
-0.0646234
-0.065886
-0.0671197
-0.0683749
-0.0696576
-0.0709454
-0.0722608
-0.0736283
-0.0750181
-0.0764161
-0.0778445
-0.0792921
-0.080781
-0.0822791
-0.0837953
-0.085329
-0.086933
-0.0885956
-0.0902808
-0.0919771
-0.0936632
-0.0953928
-0.0971489
-0.0989666
-0.100805
-0.102704
-0.104603
-0.106547
-0.108507
-0.110535
-0.112584