/*--------------------------------*- C++ -*----------------------------------*\
| =========                 |                                                 |
| \\      /  F ield         | OpenFOAM: The Open Source CFD Toolbox           |
|  \\    /   O peration     | Version:  2506                                  |
|   \\  /    A nd           | Website:  www.openfoam.com                      |
|    \\/     M anipulation  |                                                 |
\*---------------------------------------------------------------------------*/
FoamFile
{
    version     2.0;
    format      ascii;
    arch        "LSB;label=32;scalar=64";
    class       surfaceScalarField;
    location    "9.4";
    object      phi;
}
// * * * * * * * * * * * * * * * * * * * * * * * * * * * * * * * * * * * * * //

dimensions      [0 3 -1 0 0 0 0];

oriented        oriented;

internalField   nonuniform List<scalar> 
19000
(
1.20324e-06
1.88508e-06
1.14931e-06
-2.01529e-06
1.14935e-06
5.7171e-07
1.17805e-06
6.6409e-07
1.14714e-06
3.51587e-07
1.07638e-06
-1.54406e-06
1.19364e-06
1.54081e-06
1.10863e-06
-7.9014e-07
1.15298e-06
2.65038e-07
1.13977e-06
8.77824e-07
1.11477e-06
2.71342e-07
1.16102e-06
9.77093e-07
1.12898e-06
5.16303e-07
1.13399e-06
6.97043e-07
1.12951e-06
3.81893e-07
1.12263e-06
1.28933e-07
1.13246e-06
1.3491e-07
1.09848e-06
-3.89492e-07
1.11921e-06
-3.19568e-08
-5.13282e-07
1.03806e-06
1.25612e-06
1.85322e-06
1.20236e-06
-1.96153e-06
1.19817e-06
5.75906e-07
1.23335e-06
6.28906e-07
1.2008e-06
3.84139e-07
1.12905e-06
-1.47231e-06
1.24438e-06
1.42548e-06
1.15707e-06
-7.02828e-07
1.19914e-06
2.22969e-07
1.20747e-06
8.69488e-07
1.16665e-06
3.12162e-07
1.2289e-06
9.14844e-07
1.18803e-06
5.57172e-07
1.20003e-06
6.85044e-07
1.1809e-06
4.0102e-07
1.1898e-06
1.20041e-07
1.18062e-06
1.44082e-07
1.1709e-06
-3.79763e-07
1.16389e-06
-2.49556e-08
-4.76999e-07
1.12761e-06
1.31196e-06
1.82404e-06
1.25877e-06
-1.90834e-06
1.25035e-06
5.84321e-07
1.28739e-06
5.91864e-07
1.25934e-06
4.12197e-07
1.18615e-06
-1.39913e-06
1.2953e-06
1.31634e-06
1.2155e-06
-6.23028e-07
1.24724e-06
1.91228e-07
1.27793e-06
8.38796e-07
1.22502e-06
3.65076e-07
1.28817e-06
8.51691e-07
1.25061e-06
5.94731e-07
1.25526e-06
6.80397e-07
1.23888e-06
4.17405e-07
1.24313e-06
1.15786e-07
1.24301e-06
1.44199e-07
1.23229e-06
-3.69045e-07
1.23484e-06
-2.75045e-08
-4.44657e-07
1.2025e-06
1.37005e-06
1.7981e-06
1.32003e-06
-1.85832e-06
1.30532e-06
5.99026e-07
1.34255e-06
5.54634e-07
1.32274e-06
4.32007e-07
1.25077e-06
-1.32715e-06
1.34704e-06
1.22006e-06
1.28659e-06
-5.6258e-07
1.29693e-06
1.80881e-07
1.34576e-06
7.89975e-07
1.28808e-06
4.22749e-07
1.33074e-06
8.0903e-07
1.30952e-06
6.15961e-07
1.30676e-06
6.83152e-07
1.29694e-06
4.27225e-07
1.30027e-06
1.12454e-07
1.30547e-06
1.39004e-07
1.29581e-06
-3.59388e-07
1.29918e-06
-3.0878e-08
-4.10642e-07
1.26517e-06
1.43104e-06
1.77541e-06
1.38587e-06
-1.81315e-06
1.36539e-06
6.19503e-07
1.40051e-06
5.19517e-07
1.39083e-06
4.41686e-07
1.32302e-06
-1.25934e-06
1.40131e-06
1.14177e-06
1.3662e-06
-5.27471e-07
1.3543e-06
1.92782e-07
1.40731e-06
7.36969e-07
1.35774e-06
4.72322e-07
1.37262e-06
7.94148e-07
1.36544e-06
6.23134e-07
1.36446e-06
6.84134e-07
1.36081e-06
4.30874e-07
1.36621e-06
1.07057e-07
1.37462e-06
1.30594e-07
1.36516e-06
-3.49928e-07
1.36924e-06
-3.4959e-08
-3.74971e-07
1.33357e-06
1.4956e-06
1.75548e-06
1.45546e-06
-1.77301e-06
1.43217e-06
6.42793e-07
1.46297e-06
4.88719e-07
1.46269e-06
4.4196e-07
1.40128e-06
-1.19793e-06
1.4602e-06
1.08285e-06
1.44829e-06
-5.15557e-07
1.42288e-06
2.18189e-07
1.46783e-06
6.92023e-07
1.43322e-06
5.06926e-07
1.42805e-06
7.99323e-07
1.42675e-06
6.24431e-07
1.43165e-06
6.79235e-07
1.43405e-06
4.28478e-07
1.4412e-06
9.9904e-08
1.45042e-06
1.2137e-07
1.43951e-06
-3.39011e-07
1.44401e-06
-3.94594e-08
-3.3779e-07
1.40683e-06
1.56423e-06
1.73747e-06
1.52807e-06
-1.73684e-06
1.50601e-06
6.64846e-07
1.53128e-06
4.63457e-07
1.53741e-06
4.35823e-07
1.48336e-06
-1.14388e-06
1.52551e-06
1.04071e-06
1.52942e-06
-5.19463e-07
1.50099e-06
2.46621e-07
1.53304e-06
6.5997e-07
1.51227e-06
5.27695e-07
1.49893e-06
8.12661e-07
1.49893e-06
6.24435e-07
1.50862e-06
6.69546e-07
1.5151e-06
4.21996e-07
1.52292e-06
9.20806e-08
1.53139e-06
1.129e-07
1.51775e-06
-3.2537e-07
1.52234e-06
-4.40511e-08
-2.99846e-07
1.4844e-06
1.63717e-06
1.72043e-06
1.60344e-06
-1.70311e-06
1.58614e-06
6.82148e-07
1.606e-06
4.436e-07
1.61456e-06
4.27262e-07
1.56781e-06
-1.09713e-06
1.59821e-06
1.0103e-06
1.60917e-06
-5.30427e-07
1.58386e-06
2.71941e-07
1.60433e-06
6.39495e-07
1.59331e-06
5.3871e-07
1.58026e-06
8.25715e-07
1.58111e-06
6.23587e-07
1.59367e-06
6.56985e-07
1.60164e-06
4.14024e-07
1.60886e-06
8.48642e-08
1.61623e-06
1.05529e-07
1.59957e-06
-3.08713e-07
1.60392e-06
-4.84024e-08
-2.62048e-07
1.56613e-06
1.71446e-06
1.70354e-06
1.6818e-06
-1.67044e-06
1.6713e-06
6.92643e-07
1.68683e-06
4.2807e-07
1.69427e-06
4.19825e-07
1.65428e-06
-1.05714e-06
1.67818e-06
9.86404e-07
1.68875e-06
-5.40999e-07
1.66796e-06
2.92735e-07
1.68047e-06
6.26986e-07
1.6761e-06
5.43072e-07
1.66719e-06
8.34631e-07
1.66981e-06
6.20967e-07
1.68419e-06
6.42606e-07
1.69208e-06
4.06129e-07
1.69771e-06
7.92389e-08
1.70403e-06
9.92108e-08
1.6847e-06
-2.89386e-07
1.68863e-06
-5.23364e-08
-2.25155e-07
1.65174e-06
1.79603e-06
1.68623e-06
1.76356e-06
-1.63797e-06
1.76043e-06
6.95771e-07
1.77295e-06
4.15551e-07
1.77706e-06
4.15718e-07
1.74302e-06
-1.0231e-06
1.76436e-06
9.65063e-07
1.76981e-06
-5.46446e-07
1.75282e-06
3.09725e-07
1.76043e-06
6.19371e-07
1.76116e-06
5.42341e-07
1.75745e-06
8.38342e-07
1.76251e-06
6.15907e-07
1.77824e-06
6.26878e-07
1.78552e-06
3.98846e-07
1.78904e-06
7.5724e-08
1.7943e-06
9.39479e-08
1.77279e-06
-2.67876e-07
1.77622e-06
-5.57674e-08
-1.89802e-07
1.74087e-06
1.88181e-06
1.66816e-06
1.84914e-06
-1.60529e-06
1.85287e-06
6.92033e-07
1.86341e-06
4.05011e-07
1.86355e-06
4.1558e-07
1.83425e-06
-9.93807e-07
1.85532e-06
9.43992e-07
1.85383e-06
-5.44953e-07
1.83987e-06
3.23687e-07
1.84433e-06
6.14906e-07
1.84937e-06
5.37307e-07
1.85078e-06
8.36935e-07
1.8584e-06
6.08279e-07
1.87508e-06
6.10203e-07
1.88161e-06
3.92319e-07
1.88274e-06
7.45935e-08
1.88683e-06
8.985e-08
1.8636e-06
-2.44642e-07
1.86636e-06
-5.85259e-08
-1.56583e-07
1.83314e-06
1.97181e-06
1.64919e-06
1.93881e-06
-1.57228e-06
1.9483e-06
6.82542e-07
1.95748e-06
3.95829e-07
1.9543e-06
4.18761e-07
1.92808e-06
-9.67593e-07
1.94989e-06
9.22186e-07
1.9418e-06
-5.36862e-07
1.93064e-06
3.34851e-07
1.9329e-06
6.12637e-07
1.94172e-06
5.28494e-07
1.94768e-06
8.30973e-07
1.95758e-06
5.98381e-07
1.97464e-06
5.93141e-07
1.98025e-06
3.86708e-07
1.97886e-06
7.59819e-08
1.98162e-06
8.70873e-08
1.95714e-06
-2.20158e-07
1.95892e-06
-6.03076e-08
-1.25989e-07
1.92833e-06
2.06612e-06
1.62926e-06
2.03276e-06
-1.53892e-06
2.04659e-06
6.68708e-07
2.05474e-06
3.87681e-07
2.04966e-06
4.23839e-07
2.02466e-06
-9.42593e-07
2.04746e-06
8.99388e-07
2.0341e-06
-5.23498e-07
2.02585e-06
3.43099e-07
2.02673e-06
6.11759e-07
2.03892e-06
5.163e-07
2.04852e-06
8.21372e-07
2.06008e-06
5.86824e-07
2.07689e-06
5.76329e-07
2.08138e-06
3.82218e-07
2.0776e-06
7.97645e-08
2.0789e-06
8.57847e-08
2.05371e-06
-1.94964e-07
2.05418e-06
-6.0783e-08
-9.83408e-08
2.02653e-06
2.16489e-06
1.60837e-06
2.13116e-06
-1.50519e-06
2.14786e-06
6.52008e-07
2.15515e-06
3.80395e-07
2.1498e-06
4.29184e-07
2.12439e-06
-9.17175e-07
2.14808e-06
8.75697e-07
2.13075e-06
-5.06173e-07
2.12564e-06
3.48216e-07
2.12593e-06
6.11469e-07
2.1411e-06
5.0113e-07
2.15312e-06
8.09347e-07
2.16555e-06
5.74395e-07
2.18166e-06
5.60213e-07
2.18496e-06
3.78928e-07
2.17928e-06
8.54444e-08
2.17916e-06
8.58973e-08
2.15385e-06
-1.69648e-07
2.15282e-06
-5.97598e-08
-7.37158e-08
2.1282e-06
2.26832e-06
1.58653e-06
2.23423e-06
-1.4711e-06
2.25246e-06
6.33773e-07
2.25896e-06
3.73899e-07
2.25475e-06
4.33392e-07
2.2279e-06
-8.90322e-07
2.25227e-06
8.51325e-07
2.23178e-06
-4.85687e-07
2.23006e-06
3.49941e-07
2.23031e-06
6.1122e-07
2.24784e-06
4.83596e-07
2.26099e-06
7.96199e-07
2.27348e-06
5.6191e-07
2.28884e-06
5.44845e-07
2.2911e-06
3.76667e-07
2.28434e-06
9.22079e-08
2.283e-06
8.72361e-08
2.25816e-06
-1.44809e-07
2.2557e-06
-5.7297e-08
-5.19648e-08
2.23395e-06
2.37665e-06
1.56376e-06
2.34217e-06
-1.43662e-06
2.36092e-06
6.15022e-07
2.3666e-06
3.68218e-07
2.36452e-06
4.35472e-07
2.33586e-06
-8.61663e-07
2.36074e-06
8.26445e-07
2.33739e-06
-4.62335e-07
2.33934e-06
3.47987e-07
2.33966e-06
6.10908e-07
2.35866e-06
4.64594e-07
2.37187e-06
7.82988e-07
2.3837e-06
5.50079e-07
2.39865e-06
5.29895e-07
2.40019e-06
3.75126e-07
2.39327e-06
9.91255e-08
2.39101e-06
8.9504e-08
2.36708e-06
-1.20881e-07
2.36351e-06
-5.37329e-08
-3.28087e-08
2.34436e-06
2.49015e-06
1.54001e-06
2.45519e-06
-1.40166e-06
2.47383e-06
5.96382e-07
2.47857e-06
3.63472e-07
2.47923e-06
4.34819e-07
2.44873e-06
-8.31166e-07
2.47407e-06
8.01109e-07
2.44796e-06
-4.36227e-07
2.45371e-06
3.4224e-07
2.45383e-06
6.1078e-07
2.47331e-06
4.45118e-07
2.48601e-06
7.70291e-07
2.49666e-06
5.39422e-07
2.51168e-06
5.14879e-07
2.51282e-06
3.73985e-07
2.5065e-06
1.05448e-07
2.50366e-06
9.23459e-08
2.48083e-06
-9.80542e-08
2.47663e-06
-4.95302e-08
-1.59904e-08
2.45981e-06
2.60908e-06
1.51522e-06
2.57343e-06
-1.36601e-06
2.5917e-06
5.78113e-07
2.59535e-06
3.59819e-07
2.59909e-06
4.31086e-07
2.56669e-06
-7.98766e-07
2.59257e-06
7.75224e-07
2.56393e-06
-4.07591e-07
2.57318e-06
3.32992e-07
2.57276e-06
6.11205e-07
2.59194e-06
4.25939e-07
2.60406e-06
7.58166e-07
2.61322e-06
5.30266e-07
2.6288e-06
4.99301e-07
2.62969e-06
3.7309e-07
2.62439e-06
1.10748e-07
2.62141e-06
9.53313e-08
2.59957e-06
-7.6214e-08
2.59517e-06
-4.51371e-08
-1.35629e-09
2.58054e-06
2.73374e-06
1.48931e-06
2.69706e-06
-1.32933e-06
2.715e-06
5.60174e-07
2.71741e-06
3.57401e-07
2.72438e-06
4.24121e-07
2.68986e-06
-7.64244e-07
2.71648e-06
7.48604e-07
2.68573e-06
-3.7684e-07
2.69778e-06
3.20942e-07
2.6965e-06
6.12482e-07
2.71501e-06
4.07432e-07
2.72691e-06
7.46264e-07
2.73439e-06
5.22787e-07
2.75093e-06
4.82759e-07
2.75162e-06
3.72394e-07
2.74736e-06
1.15014e-07
2.74474e-06
9.79505e-08
2.72359e-06
-5.50679e-08
2.71922e-06
-4.07669e-08
1.10325e-08
2.70683e-06
2.86438e-06
1.46219e-06
2.82632e-06
-1.29126e-06
2.84417e-06
5.42316e-07
2.84525e-06
3.56327e-07
2.85539e-06
4.13976e-07
2.81851e-06
-7.27362e-07
2.84608e-06
7.21034e-07
2.81367e-06
-3.44432e-07
2.8277e-06
3.06919e-07
2.82542e-06
6.14755e-07
2.84316e-06
3.89691e-07
2.85546e-06
7.3397e-07
2.86113e-06
5.17114e-07
2.8789e-06
4.64991e-07
2.87945e-06
3.71844e-07
2.87584e-06
1.18625e-07
2.87413e-06
9.96562e-08
2.85333e-06
-3.42684e-08
2.84891e-06
-3.63388e-08
2.09676e-08
2.83897e-06
3.00129e-06
1.4338e-06
2.96154e-06
-1.25151e-06
2.97969e-06
5.24172e-07
2.97933e-06
3.56689e-07
2.99241e-06
4.00892e-07
2.95308e-06
-6.88033e-07
2.98177e-06
6.92342e-07
2.94807e-06
-3.10732e-07
2.96341e-06
2.91581e-07
2.9602e-06
6.17961e-07
2.97712e-06
3.72769e-07
2.99053e-06
7.20566e-07
2.99431e-06
5.13332e-07
3.01333e-06
4.45969e-07
3.01394e-06
3.71238e-07
3.0103e-06
1.22262e-07
3.00997e-06
9.99872e-08
2.98937e-06
-1.36682e-08
2.98442e-06
-3.13876e-08
2.8193e-08
2.97719e-06
3.14475e-06
1.40405e-06
3.10313e-06
-1.20989e-06
3.12195e-06
5.05351e-07
3.12006e-06
3.58579e-07
3.13572e-06
3.8523e-07
3.09406e-06
-6.4637e-07
3.12396e-06
6.62437e-07
3.08921e-06
-2.75978e-07
3.10547e-06
2.75325e-07
3.10161e-06
6.21821e-07
3.1175e-06
3.56871e-07
3.13272e-06
7.05354e-07
3.13458e-06
5.11467e-07
3.15465e-06
4.25904e-07
3.15565e-06
3.70232e-07
3.1512e-06
1.26719e-07
3.1525e-06
9.86857e-08
3.13229e-06
6.5431e-09
3.12608e-06
-2.51792e-08
3.25731e-08
3.1217e-06
3.29506e-06
1.3729e-06
3.25146e-06
-1.16629e-06
3.2713e-06
4.8551e-07
3.26778e-06
3.62093e-07
3.28564e-06
3.67369e-07
3.2419e-06
-6.02622e-07
3.273e-06
6.31331e-07
3.23739e-06
-2.40364e-07
3.25431e-06
2.58404e-07
3.25026e-06
6.25865e-07
3.26476e-06
3.42379e-07
3.28234e-06
6.87768e-07
3.28239e-06
5.11421e-07
3.30306e-06
4.05231e-07
3.30496e-06
3.68332e-07
3.29894e-06
1.32735e-07
3.30185e-06
9.57801e-08
3.28261e-06
2.57825e-08
3.27433e-06
-1.69027e-08
3.42833e-08
3.27262e-06
3.45254e-06
1.3403e-06
3.40691e-06
-1.12066e-06
3.42803e-06
4.64387e-07
3.4228e-06
3.67324e-07
3.44252e-06
3.47648e-07
3.39701e-06
-5.57107e-07
3.42917e-06
5.99167e-07
3.39294e-06
-2.04129e-07
3.41026e-06
2.41084e-07
3.40661e-06
6.29512e-07
3.41922e-06
3.29765e-07
3.43955e-06
6.67437e-07
3.43803e-06
5.12943e-07
3.45873e-06
3.84531e-07
3.46205e-06
3.65014e-07
3.45404e-06
1.40751e-07
3.45812e-06
9.1699e-08
3.44071e-06
4.3192e-08
3.42983e-06
-6.02227e-09
3.40081e-08
3.4301e-06
3.61751e-06
1.3062e-06
3.56984e-06
-1.07299e-06
3.59243e-06
4.41795e-07
3.58542e-06
3.74343e-07
3.60671e-06
3.26356e-07
3.55979e-06
-5.10186e-07
3.59273e-06
5.66223e-07
3.55622e-06
-1.6762e-07
3.57356e-06
2.23748e-07
3.57093e-06
6.32135e-07
3.58121e-06
3.19494e-07
3.60442e-06
6.4422e-07
3.60175e-06
5.15617e-07
3.6218e-06
3.64478e-07
3.62707e-06
3.59748e-07
3.61695e-06
1.50869e-07
3.62145e-06
8.71951e-08
3.60674e-06
5.79057e-08
3.59329e-06
7.42957e-09
3.2992e-08
3.5943e-06
3.7903e-06
1.2706e-06
3.74061e-06
-1.0233e-06
3.7648e-06
4.17604e-07
3.75597e-06
3.83181e-07
3.77857e-06
3.03753e-07
3.73065e-06
-4.62263e-07
3.76396e-06
5.32913e-07
3.72764e-06
-1.31301e-07
3.74448e-06
2.06907e-07
3.74348e-06
6.33131e-07
3.75105e-06
3.11925e-07
3.77704e-06
6.18235e-07
3.77379e-06
5.18861e-07
3.79245e-06
3.45821e-07
3.80011e-06
3.52082e-07
3.78818e-06
1.62801e-07
3.79209e-06
8.3289e-08
3.7808e-06
6.91939e-08
3.76538e-06
2.28526e-08
3.2717e-08
3.76565e-06
3.97128e-06
1.23351e-06
3.91959e-06
-9.71611e-07
3.94546e-06
3.91732e-07
3.93483e-06
3.93814e-07
3.95848e-06
2.80109e-07
3.91002e-06
-4.13806e-07
3.94314e-06
4.99787e-07
3.9076e-06
-9.57581e-08
3.92334e-06
1.91168e-07
3.92451e-06
6.31964e-07
3.92917e-06
3.07262e-07
3.95755e-06
5.89856e-07
3.95442e-06
5.21986e-07
3.97096e-06
3.29284e-07
3.9813e-06
3.41745e-07
3.96812e-06
1.75976e-07
3.97042e-06
8.09963e-08
3.96294e-06
7.66735e-08
3.94658e-06
3.92044e-08
3.45781e-08
3.94472e-06
4.16082e-06
1.19494e-06
4.10717e-06
-9.17961e-07
4.13476e-06
3.64142e-07
4.12243e-06
4.06139e-07
4.14681e-06
2.55732e-07
4.09835e-06
-3.65346e-07
4.13062e-06
4.67512e-07
4.09652e-06
-6.16496e-08
4.11055e-06
1.77139e-07
4.11428e-06
6.28231e-07
4.11604e-06
3.05502e-07
4.14623e-06
5.59664e-07
4.14393e-06
5.24287e-07
4.15776e-06
3.15449e-07
4.17074e-06
3.28772e-07
4.15714e-06
1.89574e-07
4.15698e-06
8.11509e-08
4.15315e-06
8.0508e-08
4.13725e-06
5.51082e-08
3.94686e-08
4.13236e-06
4.3593e-06
1.15494e-06
4.30375e-06
-8.62409e-07
4.33304e-06
3.3485e-07
4.31921e-06
4.19968e-07
4.34396e-06
2.30983e-07
4.2961e-06
-3.17483e-07
4.32674e-06
4.36865e-07
4.29477e-06
-2.96751e-08
4.30658e-06
1.65329e-07
4.31308e-06
6.21728e-07
4.31218e-06
3.06403e-07
4.34344e-06
5.28407e-07
4.34264e-06
5.25082e-07
4.35334e-06
3.04757e-07
4.36862e-06
3.13487e-07
4.35555e-06
2.02642e-07
4.35243e-06
8.4279e-08
4.35155e-06
8.13816e-08
4.33748e-06
6.91767e-08
4.75171e-08
4.32943e-06
4.56716e-06
1.11356e-06
4.50978e-06
-8.05027e-07
4.54069e-06
3.03938e-07
4.52563e-06
4.35027e-07
4.55032e-06
2.06297e-07
4.50371e-06
-2.70878e-07
4.53189e-06
4.08687e-07
4.50273e-06
-5.12628e-10
4.51199e-06
1.56064e-07
4.52123e-06
6.12491e-07
4.51813e-06
3.09509e-07
4.54966e-06
4.96873e-07
4.55087e-06
5.23869e-07
4.55829e-06
2.97343e-07
4.57526e-06
2.96511e-07
4.5636e-06
2.14309e-07
4.55734e-06
9.05331e-08
4.55845e-06
8.02737e-08
4.54734e-06
8.0281e-08
5.80798e-08
4.53678e-06
4.78485e-06
1.07082e-06
4.72573e-06
-7.4591e-07
4.75811e-06
2.7156e-07
4.74217e-06
4.5097e-07
4.76628e-06
1.82181e-07
4.72166e-06
-2.26259e-07
4.74656e-06
3.83793e-07
4.72073e-06
2.53137e-08
4.72738e-06
1.49409e-07
4.73908e-06
6.00793e-07
4.73439e-06
3.14205e-07
4.76544e-06
4.65819e-07
4.76901e-06
5.20297e-07
4.77321e-06
2.93143e-07
4.79112e-06
2.78601e-07
4.78162e-06
2.23811e-07
4.77243e-06
9.97186e-08
4.77428e-06
7.84276e-08
4.76689e-06
8.76692e-08
6.99539e-08
4.75502e-06
5.01283e-06
1.02679e-06
4.95211e-06
-6.85186e-07
4.98572e-06
2.37941e-07
4.96931e-06
4.67383e-07
4.99227e-06
1.59219e-07
4.95041e-06
-1.844e-07
4.97139e-06
3.6282e-07
4.94912e-06
4.75856e-08
4.95336e-06
1.45166e-07
4.96707e-06
5.87084e-07
4.96143e-06
3.19841e-07
4.99139e-06
4.35862e-07
4.99748e-06
5.14208e-07
4.99871e-06
2.91915e-07
5.01674e-06
2.60563e-07
5.01002e-06
2.30535e-07
4.9984e-06
1.11335e-07
4.99979e-06
7.70395e-08
4.99611e-06
9.13518e-08
8.15061e-08
4.98456e-06
5.25159e-06
9.81517e-07
5.18943e-06
-6.23028e-07
5.224e-06
2.03375e-07
5.20758e-06
4.83798e-07
5.22874e-06
1.38062e-07
5.19047e-06
-1.46125e-07
5.20708e-06
3.46207e-07
5.18822e-06
6.64426e-08
5.19053e-06
1.42861e-07
5.20571e-06
5.71905e-07
5.19969e-06
3.25855e-07
5.22813e-06
4.07424e-07
5.23673e-06
5.05605e-07
5.2354e-06
2.93252e-07
5.25277e-06
2.43194e-07
5.24922e-06
2.34086e-07
5.23597e-06
1.24579e-07
5.23568e-06
7.73296e-08
5.23521e-06
9.18196e-08
9.11628e-08
5.22556e-06
5.50163e-06
9.35074e-07
5.43826e-06
-5.59658e-07
5.47342e-06
1.68218e-07
5.45754e-06
4.99679e-07
5.47616e-06
1.19444e-07
5.44233e-06
-1.123e-07
5.45435e-06
3.34192e-07
5.43843e-06
8.23622e-08
5.43949e-06
1.418e-07
5.45558e-06
5.55813e-07
5.44958e-06
3.31855e-07
5.47628e-06
3.80728e-07
5.48734e-06
4.94542e-07
5.48382e-06
2.9677e-07
5.49989e-06
2.27124e-07
5.49969e-06
2.34289e-07
5.48566e-06
1.3861e-07
5.48294e-06
8.0047e-08
5.48466e-06
9.00956e-08
9.78024e-08
5.47802e-06
5.76347e-06
8.87561e-07
5.69916e-06
-4.95351e-07
5.7345e-06
1.32886e-07
5.71975e-06
5.14421e-07
5.73503e-06
1.04168e-07
5.70632e-06
-8.35856e-08
5.71388e-06
3.26627e-07
5.70019e-06
9.60535e-08
5.70078e-06
1.41206e-07
5.71732e-06
5.39271e-07
5.71154e-06
3.37639e-07
5.73638e-06
3.55887e-07
5.74985e-06
4.81074e-07
5.74454e-06
3.02082e-07
5.7587e-06
2.12956e-07
5.76192e-06
2.31071e-07
5.74786e-06
1.52675e-07
5.74255e-06
8.53551e-08
5.74515e-06
8.74957e-08
1.0119e-07
5.74176e-06
6.03765e-06
8.39103e-07
5.97274e-06
-4.30437e-07
6.00776e-06
9.78612e-08
5.99485e-06
5.27335e-07
6.00593e-06
9.30849e-08
5.98274e-06
-6.03901e-08
5.98639e-06
3.2297e-07
5.97406e-06
1.08392e-07
5.9749e-06
1.40363e-07
5.99163e-06
5.22544e-07
5.98607e-06
3.43199e-07
6.00902e-06
3.32936e-07
6.0248e-06
4.6529e-07
6.01821e-06
3.08673e-07
6.02975e-06
2.01415e-07
6.03626e-06
2.24558e-07
6.0231e-06
1.65839e-07
6.01538e-06
9.30742e-08
6.01753e-06
8.53429e-08
1.01746e-07
6.01698e-06
6.32473e-06
7.89859e-07
6.25961e-06
-3.65314e-07
6.29378e-06
6.36937e-08
6.28347e-06
5.37639e-07
6.28955e-06
8.70087e-08
6.27199e-06
-4.28368e-08
6.27259e-06
3.22373e-07
6.26064e-06
1.20345e-07
6.26231e-06
1.38688e-07
6.27921e-06
5.05651e-07
6.27372e-06
3.48689e-07
6.29469e-06
3.11961e-07
6.31275e-06
4.4723e-07
6.3055e-06
3.15921e-07
6.31373e-06
1.93186e-07
6.32312e-06
2.15175e-07
6.3119e-06
1.77058e-07
6.30202e-06
1.02952e-07
6.30296e-06
8.44054e-08
1.0043e-07
6.30427e-06
6.62531e-06
7.40018e-07
6.56043e-06
-3.0043e-07
6.59314e-06
3.09787e-08
6.58629e-06
5.44492e-07
6.58673e-06
8.65691e-08
6.57452e-06
-3.0633e-08
6.57318e-06
3.23713e-07
6.56068e-06
1.32849e-07
6.56347e-06
1.359e-07
6.58078e-06
4.8834e-07
6.57513e-06
3.54333e-07
6.59397e-06
2.93123e-07
6.61425e-06
4.26952e-07
6.60705e-06
3.23121e-07
6.61139e-06
1.88847e-07
6.62298e-06
2.03586e-07
6.61467e-06
1.8536e-07
6.60309e-06
1.14537e-07
6.60237e-06
8.51254e-08
9.81918e-08
6.60461e-06
6.94e-06
6.89805e-07
6.87587e-06
-2.36294e-07
6.90649e-06
3.53459e-10
6.90396e-06
5.4702e-07
6.89837e-06
9.21654e-08
6.89087e-06
-2.31344e-08
6.88885e-06
3.25733e-07
6.87499e-06
1.46707e-07
6.87886e-06
1.32035e-07
6.89698e-06
4.70214e-07
6.89108e-06
3.60235e-07
6.90739e-06
2.76813e-07
6.92985e-06
4.04491e-07
6.92345e-06
3.29528e-07
6.92362e-06
1.88675e-07
6.93637e-06
1.90832e-07
6.93183e-06
1.89903e-07
6.91928e-06
1.27083e-07
6.91661e-06
8.77997e-08
9.57075e-08
6.91909e-06
7.26946e-06
6.39477e-07
7.20663e-06
-1.73464e-07
7.2345e-06
-2.75117e-08
7.23713e-06
5.44394e-07
7.22541e-06
1.03883e-07
7.22161e-06
-1.9337e-08
7.22029e-06
3.27053e-07
7.20445e-06
1.62545e-07
7.20902e-06
1.27466e-07
7.22842e-06
4.50813e-07
7.22236e-06
3.663e-07
7.23568e-06
2.63489e-07
7.26003e-06
3.80141e-07
7.25532e-06
3.34241e-07
7.25143e-06
1.92562e-07
7.26391e-06
1.78357e-07
7.26365e-06
1.90161e-07
7.2513e-06
1.39431e-07
7.24641e-06
9.26869e-08
9.34753e-08
7.24865e-06
7.61437e-06
5.8933e-07
7.55346e-06
-1.1255e-07
7.57787e-06
-5.19179e-08
7.58623e-06
5.36033e-07
7.56879e-06
1.21322e-07
7.5674e-06
-1.79518e-08
7.56815e-06
3.26308e-07
7.55004e-06
1.80655e-07
7.55453e-06
1.2297e-07
7.57564e-06
4.2971e-07
7.5698e-06
3.72137e-07
7.57965e-06
2.53641e-07
7.6053e-06
3.54485e-07
7.60317e-06
3.36375e-07
7.59591e-06
1.99824e-07
7.60636e-06
1.67904e-07
7.61047e-06
1.86047e-07
7.59972e-06
1.50181e-07
7.59269e-06
9.97255e-08
9.20928e-08
7.59407e-06
7.97544e-06
5.397e-07
7.91709e-06
-5.41958e-08
7.93734e-06
-7.21737e-08
7.9517e-06
5.21676e-07
7.92942e-06
1.43597e-07
7.929e-06
-1.75318e-08
7.93294e-06
3.22376e-07
7.91275e-06
2.00837e-07
7.91605e-06
1.19669e-07
7.93913e-06
4.06632e-07
7.93418e-06
3.77092e-07
7.94014e-06
2.47681e-07
7.96626e-06
3.28366e-07
7.96751e-06
3.35126e-07
7.95798e-06
2.09349e-07
7.96503e-06
1.60851e-07
7.97271e-06
1.78367e-07
7.96491e-06
1.57987e-07
7.95626e-06
1.08377e-07
9.22247e-08
7.95612e-06
8.35342e-06
4.90961e-07
8.29827e-06
9.56734e-10
8.31371e-06
-8.76127e-08
8.33404e-06
5.01346e-07
8.30821e-06
1.69426e-07
8.30716e-06
-1.64788e-08
8.3151e-06
3.14432e-07
8.29353e-06
2.2241e-07
8.29441e-06
1.18785e-07
8.31933e-06
3.81711e-07
8.31616e-06
3.80266e-07
8.31798e-06
2.4586e-07
8.34361e-06
3.02732e-07
8.34865e-06
3.30082e-07
8.33829e-06
2.19718e-07
8.34141e-06
1.57724e-07
8.35094e-06
1.68843e-07
8.34705e-06
1.61872e-07
8.33802e-06
1.17411e-07
9.43397e-08
8.3359e-06
8.7491e-06
4.43527e-07
8.69784e-06
5.22173e-08
8.70776e-06
-9.75372e-08
8.73383e-06
4.75277e-07
8.706e-06
1.97255e-07
8.70266e-06
-1.31438e-08
8.71498e-06
3.0212e-07
8.69327e-06
2.4412e-07
8.69047e-06
1.21584e-07
8.71671e-06
3.55469e-07
8.71614e-06
3.80834e-07
8.71394e-06
2.48064e-07
8.738e-06
2.78672e-07
8.74701e-06
3.21065e-07
8.73739e-06
2.29343e-07
8.73678e-06
1.58335e-07
8.7464e-06
1.59219e-07
8.74638e-06
1.61895e-07
8.73837e-06
1.25419e-07
9.81991e-08
8.73451e-06
9.16329e-06
3.97851e-07
9.11671e-06
9.87984e-08
9.12039e-06
-1.0121e-07
9.15175e-06
4.4391e-07
9.1237e-06
2.25304e-07
9.11648e-06
-5.9198e-09
9.13297e-06
2.85631e-07
9.11258e-06
2.64508e-07
9.10526e-06
1.28909e-07
9.13163e-06
3.29101e-07
9.13441e-06
3.78053e-07
9.12902e-06
2.53453e-07
9.15006e-06
2.57626e-07
9.16328e-06
3.07849e-07
9.15584e-06
2.36781e-07
9.15223e-06
1.61945e-07
9.16042e-06
1.51034e-07
9.1636e-06
1.58711e-07
9.15771e-06
1.31313e-07
1.03084e-07
9.15282e-06
9.59691e-06
3.54398e-07
9.55586e-06
1.39847e-07
9.55262e-06
-9.79675e-08
9.58864e-06
4.07892e-07
9.56229e-06
2.51657e-07
9.54969e-06
6.67848e-09
9.5694e-06
2.65916e-07
9.55198e-06
2.81927e-07
9.53984e-06
1.41054e-07
9.56495e-06
3.0399e-07
9.57187e-06
3.71137e-07
9.56479e-06
2.60526e-07
9.58143e-06
2.40988e-07
9.59832e-06
2.90958e-07
9.59423e-06
2.40875e-07
9.58865e-06
1.67526e-07
9.59444e-06
1.45244e-07
9.59978e-06
1.53365e-07
9.59644e-06
1.34661e-07
1.08062e-07
9.59146e-06
1.00509e-05
3.13609e-07
1.00162e-05
1.74605e-07
1.00058e-05
-8.76193e-08
1.00452e-05
3.68509e-07
1.00225e-05
2.74365e-07
1.00036e-05
2.56011e-08
1.00247e-05
2.44806e-07
1.0012e-05
2.9465e-07
9.99609e-06
1.56916e-07
1.00183e-05
2.81755e-07
1.00297e-05
3.59796e-07
1.00229e-05
2.67343e-07
1.00347e-05
2.2918e-07
1.00531e-05
2.72472e-07
1.00531e-05
2.40891e-07
1.00469e-05
1.73742e-07
1.00499e-05
1.42228e-07
1.00561e-05
1.47149e-07
1.00554e-05
1.35424e-07
1.12403e-07
1.0051e-05
1.05264e-05
2.75871e-07
1.04985e-05
2.02512e-07
1.04815e-05
-7.06623e-08
1.05223e-05
3.27747e-07
1.0505e-05
2.91683e-07
1.04799e-05
5.06911e-08
1.05002e-05
2.24436e-07
1.04933e-05
3.01575e-07
1.04758e-05
1.74402e-07
1.04938e-05
2.63786e-07
1.05089e-05
3.44719e-07
1.05037e-05
2.72514e-07
1.05111e-05
2.21804e-07
1.05293e-05
2.54216e-07
1.05332e-05
2.37035e-07
1.05277e-05
1.79261e-07
1.05282e-05
1.41672e-07
1.05341e-05
1.41312e-07
1.05355e-05
1.33992e-07
1.15589e-07
1.05323e-05
1.10244e-05
2.41482e-07
1.10036e-05
2.23315e-07
1.09813e-05
-4.84006e-08
1.1021e-05
2.88064e-07
1.10106e-05
3.02105e-07
1.09813e-05
7.99512e-08
1.09983e-05
2.07463e-07
1.09971e-05
3.02819e-07
1.09798e-05
1.91672e-07
1.09932e-05
2.50425e-07
1.10105e-05
3.27356e-07
1.10079e-05
2.75153e-07
1.10119e-05
2.17822e-07
1.10284e-05
2.37711e-07
1.10354e-05
2.3002e-07
1.10315e-05
1.83161e-07
1.10304e-05
1.42788e-07
1.1035e-05
1.36662e-07
1.10379e-05
1.31082e-07
1.17285e-07
1.10362e-05
1.15462e-05
2.10624e-07
1.15324e-05
2.37146e-07
1.15065e-05
-2.25212e-08
1.15428e-05
2.51747e-07
1.15399e-05
3.05007e-07
1.1509e-05
1.10925e-07
1.15209e-05
1.95536e-07
1.15243e-05
2.99375e-07
1.15086e-05
2.07416e-07
1.15176e-05
2.41379e-07
1.15358e-05
3.09158e-07
1.15361e-05
2.74867e-07
1.15379e-05
2.16037e-07
1.15518e-05
2.23824e-07
1.15609e-05
2.20936e-07
1.15591e-05
1.84888e-07
1.15572e-05
1.44686e-07
1.15605e-05
1.33451e-07
1.1564e-05
1.27556e-07
1.17416e-07
1.15638e-05
1.20931e-05
1.83367e-07
1.20858e-05
2.44454e-07
1.20581e-05
5.17597e-09
1.20893e-05
2.20561e-07
1.20933e-05
3.00928e-07
1.20632e-05
1.41022e-07
1.20698e-05
1.89017e-07
1.20763e-05
2.92866e-07
1.2063e-05
2.20733e-07
1.20683e-05
2.36058e-07
1.20861e-05
2.9133e-07
1.20892e-05
2.71738e-07
1.209e-05
2.15266e-07
1.2101e-05
2.12812e-07
1.2111e-05
2.10926e-07
1.21116e-05
1.84312e-07
1.21097e-05
1.46613e-07
1.21116e-05
1.31482e-07
1.21151e-05
1.24052e-07
1.1634e-07
1.21162e-05
1.26663e-05
1.59653e-07
1.26648e-05
2.45946e-07
1.2637e-05
3.29613e-08
1.2662e-05
1.95578e-07
1.26717e-05
2.91214e-07
1.26449e-05
1.67893e-07
1.26464e-05
1.87489e-07
1.26542e-05
2.85046e-07
1.26437e-05
2.31221e-07
1.26462e-05
2.3356e-07
1.26627e-05
2.7482e-07
1.26683e-05
2.66124e-07
1.2669e-05
2.14604e-07
1.26774e-05
2.04406e-07
1.26874e-05
2.00928e-07
1.26899e-05
1.81784e-07
1.26887e-05
1.47884e-07
1.26897e-05
1.30451e-07
1.26929e-05
1.20885e-07
1.14484e-07
1.26947e-05
1.32673e-05
1.39309e-07
1.32708e-05
2.42436e-07
1.32443e-05
5.94444e-08
1.32629e-05
1.76965e-07
1.32764e-05
2.77778e-07
1.32541e-05
1.90158e-07
1.32519e-05
1.89688e-07
1.32595e-05
2.77397e-07
1.32519e-05
2.38868e-07
1.32525e-05
2.32968e-07
1.32672e-05
2.60147e-07
1.32747e-05
2.58563e-07
1.32759e-05
2.13453e-07
1.32822e-05
1.98027e-07
1.32915e-05
1.91673e-07
1.32955e-05
1.77761e-07
1.32953e-05
1.48148e-07
1.32958e-05
1.29925e-07
1.32985e-05
1.18135e-07
1.12262e-07
1.33008e-05
1.38974e-05
1.22064e-07
1.3905e-05
2.34844e-07
1.38809e-05
8.35313e-08
1.38935e-05
1.64357e-07
1.39088e-05
2.62506e-07
1.38916e-05
2.07368e-07
1.38871e-05
1.94211e-07
1.38937e-05
2.70732e-07
1.38886e-05
2.4398e-07
1.38882e-05
2.3341e-07
1.39009e-05
2.47461e-07
1.39097e-05
2.49701e-07
1.39118e-05
2.11337e-07
1.39167e-05
1.93175e-07
1.39248e-05
1.83527e-07
1.39299e-05
1.72735e-07
1.39307e-05
1.47295e-07
1.39311e-05
1.29491e-07
1.39334e-05
1.15855e-07
1.0979e-07
1.39359e-05
1.45581e-05
1.07585e-07
1.45682e-05
2.24744e-07
1.45471e-05
1.04638e-07
1.45552e-05
1.56323e-07
1.45709e-05
2.46778e-07
1.45584e-05
2.19908e-07
1.45526e-05
1.99974e-07
1.45583e-05
2.65062e-07
1.45553e-05
2.46948e-07
1.45545e-05
2.34224e-07
1.45652e-05
2.36724e-07
1.45747e-05
2.40233e-07
1.45781e-05
2.07937e-07
1.4582e-05
1.89307e-07
1.4589e-05
1.7648e-07
1.45944e-05
1.67337e-07
1.45964e-05
1.4529e-07
1.4597e-05
1.28851e-07
1.45989e-05
1.14038e-07
1.07143e-07
1.46015e-05
1.52509e-05
9.56058e-08
1.52592e-05
2.16378e-07
1.52437e-05
1.2017e-07
1.52498e-05
1.5019e-07
1.52645e-05
2.3213e-07
1.52546e-05
2.29807e-07
1.52489e-05
2.05636e-07
1.52545e-05
2.59435e-07
1.52537e-05
2.47771e-07
1.52529e-05
2.35008e-07
1.52618e-05
2.27897e-07
1.52713e-05
2.30652e-07
1.52759e-05
2.03342e-07
1.52795e-05
1.85748e-07
1.52854e-05
1.70571e-07
1.52908e-05
1.61985e-07
1.52936e-05
1.42402e-07
1.52949e-05
1.276e-07
1.52964e-05
1.12578e-07
1.04509e-07
1.5299e-05
1.59779e-05
8.50051e-08
1.59997e-05
1.94635e-07
1.59898e-05
1.30075e-07
1.59842e-05
1.55738e-07
1.59891e-05
2.27205e-07
1.59817e-05
2.37295e-07
1.59775e-05
2.09775e-07
1.59838e-05
2.53194e-07
1.59851e-05
2.46435e-07
1.59846e-05
2.35513e-07
1.59916e-05
2.20877e-07
1.60011e-05
2.21207e-07
1.60066e-05
1.97783e-07
1.60105e-05
1.81911e-07
1.60156e-05
1.65419e-07
1.60207e-05
1.56927e-07
1.60241e-05
1.39004e-07
1.60261e-05
1.25543e-07
1.60275e-05
1.11188e-07
1.02139e-07
1.60299e-05
1.67384e-05
7.71671e-08
1.67429e-05
1.90168e-07
1.67338e-05
1.39188e-07
1.67342e-05
1.55331e-07
1.67458e-05
2.15645e-07
1.67436e-05
2.39502e-07
1.67412e-05
2.12174e-07
1.67481e-05
2.46294e-07
1.67518e-05
2.42715e-07
1.67519e-05
2.35431e-07
1.67573e-05
2.15441e-07
1.6766e-05
2.12523e-07
1.67723e-05
1.91458e-07
1.67765e-05
1.77707e-07
1.67813e-05
1.60621e-07
1.6786e-05
1.52221e-07
1.67895e-05
1.35532e-07
1.67922e-05
1.22834e-07
1.67939e-05
1.09429e-07
1.00115e-07
1.6796e-05
1.75371e-05
7.04644e-08
1.75502e-05
1.77009e-07
1.75398e-05
1.49636e-07
1.75339e-05
1.61222e-07
1.75423e-05
2.07219e-07
1.75425e-05
2.39288e-07
1.75412e-05
2.13493e-07
1.75483e-05
2.39222e-07
1.7554e-05
2.36979e-07
1.75552e-05
2.34201e-07
1.75595e-05
2.11131e-07
1.75671e-05
2.04944e-07
1.75741e-05
1.84486e-07
1.75788e-05
1.72988e-07
1.75836e-05
1.55881e-07
1.75882e-05
1.47532e-07
1.75916e-05
1.32154e-07
1.75946e-05
1.19825e-07
1.7597e-05
1.07072e-07
9.81929e-08
1.75989e-05
1.83733e-05
6.54908e-08
1.838e-05
1.70366e-07
1.83749e-05
1.54731e-07
1.83716e-05
1.64521e-07
1.83791e-05
1.99705e-07
1.83807e-05
2.377e-07
1.83797e-05
2.14502e-07
1.83867e-05
2.32203e-07
1.83942e-05
2.29468e-07
1.83972e-05
2.31169e-07
1.84009e-05
2.07487e-07
1.84072e-05
1.98601e-07
1.84141e-05
1.77641e-07
1.84195e-05
1.67532e-07
1.84242e-05
1.51185e-07
1.8429e-05
1.42748e-07
1.84326e-05
1.28589e-07
1.84354e-05
1.1697e-07
1.84384e-05
1.04055e-07
9.61565e-08
1.84405e-05
1.92504e-05
6.15028e-08
1.92587e-05
1.62003e-07
1.9254e-05
1.59443e-07
1.92504e-05
1.682e-07
1.92571e-05
1.92936e-07
1.926e-05
2.34823e-07
1.92593e-05
2.15183e-07
1.92652e-05
2.26362e-07
1.92737e-05
2.20972e-07
1.92787e-05
2.2615e-07
1.92822e-05
2.03939e-07
1.92876e-05
1.93207e-07
1.92939e-05
1.71362e-07
1.92999e-05
1.61507e-07