/*--------------------------------*- C++ -*----------------------------------*\
| =========                 |                                                 |
| \\      /  F ield         | OpenFOAM: The Open Source CFD Toolbox           |
|  \\    /   O peration     | Version:  2506                                  |
|   \\  /    A nd           | Website:  www.openfoam.com                      |
|    \\/     M anipulation  |                                                 |
\*---------------------------------------------------------------------------*/
FoamFile
{
    version     2.0;
    format      ascii;
    arch        "LSB;label=32;scalar=64";
    class       volScalarField;
    location    "9";
    object      p;
}
// * * * * * * * * * * * * * * * * * * * * * * * * * * * * * * * * * * * * * //

dimensions      [0 2 -2 0 0 0 0];

internalField   nonuniform List<scalar> 
9600
(
8.78845e-11
0.000865848
0.00082304
0.00173359
0.00247773
0.00136005
-0.000261166
0.00122896
0.00326109
0.00684364
0.00816257
0.00902453
0.0115363
0.0140364
0.0163905
0.017811
0.0203502
0.0220439
0.0280231
0.0331688
-2.45043e-06
0.000886188
0.000817206
0.00173432
0.0024694
0.00136507
-0.000247515
0.00123967
0.00324377
0.00683794
0.00815803
0.00903065
0.0115373
0.0140418
0.0163867
0.017792
0.0203549
0.0219838
0.0280904
0.0327209
-2.29032e-06
0.000906792
0.000806305
0.00174415
0.00245858
0.0013713
-0.000223207
0.00125402
0.00322781
0.00682884
0.00815277
0.00904787
0.0115364
0.014055
0.016379
0.0177756
0.0203441
0.0219262
0.0280939
0.0320773
1.63093e-06
0.000921945
0.000795766
0.00176612
0.00243718
0.00137976
-0.000182298
0.00127453
0.00322234
0.00682306
0.00814896
0.00907081
0.0115405
0.0140712
0.0163726
0.017754
0.0203259
0.0218743
0.028004
0.0315155
8.83701e-06
0.000932962
0.00078841
0.00179349
0.00240587
0.00138995
-0.000126184
0.00130501
0.00322738
0.00682101
0.00814624
0.00909664
0.011552
0.0140889
0.0163677
0.017726
0.0203055
0.0218112
0.0278721
0.0309944
1.85091e-05
0.000941467
0.000785315
0.0018236
0.00236712
0.00140203
-5.64031e-05
0.00134679
0.00324246
0.00682239
0.00814494
0.00912506
0.0115705
0.0141064
0.0163628
0.0176925
0.0202765
0.0217443
0.0276991
0.0305005
2.96862e-05
0.000948955
0.000786858
0.00185813
0.00232572
0.0014159
2.34451e-05
0.0013971
0.00326342
0.00682711
0.00814538
0.00915467
0.0115945
0.0141212
0.0163561
0.017653
0.0202375
0.0216744
0.0274823
0.0300243
4.16772e-05
0.000956866
0.000792361
0.00189961
0.00228605
0.00143194
0.000109747
0.00145127
0.00328694
0.00683301
0.00814679
0.00918349
0.0116215
0.0141309
0.0163456
0.0176075
0.0201859
0.021601
0.0272212
0.0295599
5.4156e-05
0.000966107
0.00080038
0.00194945
0.00225191
0.00145062
0.000199322
0.00150494
0.00330901
0.00683627
0.00814826
0.0092094
0.0116482
0.0141331
0.016329
0.0175564
0.0201196
0.0215236
0.0269178
0.0291008
6.70248e-05
0.000976977
0.000809496
0.00200755
0.00222564
0.00147239
0.000290612
0.00155561
0.00332752
0.00683395
0.00814905
0.00923011
0.0116711
0.0141255
0.0163041
0.0174999
0.0200366
0.0214413
0.0265749
0.0286401
8.0285e-05
0.000989422
0.000818897
0.00207236
0.00220759
0.00149718
0.000383394
0.00160276
0.00334328
0.00682554
0.00814846
0.00924353
0.011687
0.0141066
0.0162687
0.0174389
0.0199353
0.0213518
0.026197
0.028171
9.39681e-05
0.00100327
0.000828584
0.00214142
0.00219613
0.00152412
0.000478186
0.00164742
0.00335995
0.00681284
0.00814639
0.00924836
0.0116935
0.0140758
0.0162213
0.0173737
0.0198148
0.0212519
0.0257898
0.0276876
0.000108129
0.00101836
0.000839122
0.00221201
0.00218858
0.00155188
0.000575471
0.00169127
0.00338204
0.0067993
0.00814361
0.00924466
0.0116896
0.0140334
0.0161609
0.0173044
0.0196749
0.0211385
0.0253592
0.0271859
0.000122811
0.00103458
0.000851254
0.00228191
0.00218249
0.00157918
0.000675073
0.00173564
0.00341313
0.00678848
0.00814144
0.00923352
0.0116756
0.0139811
0.0160873
0.0172308
0.0195165
0.0210079
0.0249106
0.0266638
0.000138027
0.00105187
0.000865538
0.00234972
0.00217656
0.00160519
0.000776374
0.00178103
0.00345455
0.00678228
0.00814092
0.00921634
0.0116527
0.0139209
0.0160008
0.0171521
0.0193405
0.0208566
0.0244488
0.0261212
0.000153808
0.00107021
0.000882184
0.0024148
0.00217083
0.00162962
0.000878907
0.00182734
0.00350534
0.00678064
0.00814232
0.00919454
0.0116219
0.0138552
0.0159022
0.0170673
0.0191485
0.0206814
0.0239779
0.02556
0.00017022
0.00108962
0.000901114
0.00247693
0.00216608
0.00165249
0.000982468
0.00187437
0.00356336
0.00678238
0.00814518
0.00916926
0.0115842
0.0137857
0.0157922
0.0169744
0.0189421
0.0204801
0.023501
0.0249828
0.000187352
0.00111008
0.000922165
0.00253603
0.00216334
0.00167382
0.00108685
0.00192208
0.0036264
0.00678626
0.00814854
0.00914115
0.0115401
0.0137135
0.0156715
0.0168717
0.0187229
0.0202518
0.0230202
0.0243936
0.000205298
0.00113152
0.000945216
0.00259203
0.00216359
0.00169367
0.00119173
0.00197046
0.00369268
0.00679164
0.00815151
0.00911057
0.0114898
0.013639
0.0155409
0.0167571
0.0184919
0.0199958
0.0225357
0.0237972
0.00022417
0.00115383
0.000970211
0.00264479
0.00216763
0.00171209
0.00129672
0.00201956
0.00376082
0.00679836
0.00815334
0.00907786
0.0114333
0.0135619
0.0154011
0.0166289
0.0182498
0.0197128
0.0220467
0.0231975
0.000244111
0.00117687
0.000997145
0.00269415
0.00217605
0.00172923
0.00140137
0.00206957
0.00382968
0.00680641
0.00815338
0.00904304
0.0113704
0.0134818
0.0152525
0.0164854
0.0179977
0.019404
0.0215512
0.0225979
0.000265269
0.00120049
0.00102608
0.00273989
0.00218932
0.00174526
0.0015051
0.00212075
0.00389831
0.00681594
0.00815111
0.00900589
0.0113014
0.0133983
0.0150951
0.0163248
0.0177357
0.0190714
0.0210483
0.0220011
0.000287804
0.00122452
0.00105711
0.0027818
0.00220768
0.00176051
0.00160734
0.00217335
0.00396579
0.00682731
0.0081462
0.00896626
0.0112262
0.0133103
0.0149294
0.0161455
0.0174631
0.0187178
0.0205375
0.0214089
0.000311916
0.00124874
0.00109038
0.00281968
0.0022312
0.00177533
0.00170752
0.00222759
0.00403137
0.00684022
0.00813853
0.00892382
0.0111446
0.0132171
0.0147555
0.0159469
0.0171794
0.0183448
0.0200178
0.020823
0.000337823
0.00127294
0.001126
0.00285338
0.00225974
0.00179016
0.00180514
0.00228378
0.00409424
0.00685465
0.00812827
0.00887786
0.0110565
0.013118
0.0145731
0.0157284
0.0168846
0.0179548
0.0194868
0.0202431
0.000365727
0.00129693
0.00116404
0.00288272
0.00229307
0.00180552
0.00189956
0.00234232
0.00415376
0.00687035
0.00811559
0.00882749
0.0109618
0.013013
0.0143827
0.0154887
0.0165781
0.017552
0.0189428
0.0196664
0.000395834
0.0013205
0.00120452
0.00290769
0.0023308
0.00182203
0.00199024
0.0024034
0.00420956
0.00688678
0.00810099
0.00877211
0.0108598
0.0129016
0.0141851
0.0152272
0.0162576
0.0171408
0.0183871
0.0190867
0.000428383
0.00134341
0.00124747
0.00292838
0.00237246
0.00184029
0.00207678
0.00246697
0.00426123
0.00690326
0.00808515
0.00871136
0.0107493
0.0127829
0.0139815
0.014945
0.0159202
0.0167239
0.0178245
0.0184974
0.000463614
0.0013655
0.00129276
0.00294499
0.0024176
0.00186089
0.0021589
0.00253305
0.00430844
0.00691899
0.00806826
0.00864504
0.0106294
0.0126559
0.0137728
0.0146437
0.0155639
0.0163014
0.0172601
0.017896
0.000501748
0.00138674
0.00133998
0.00295771
0.00246573
0.00188434
0.00223625
0.00260174
0.00435108
0.0069328
0.00805052
0.00857454
0.0104992
0.0125192
0.0135595
0.0143259
0.0151883
0.0158717
0.0166978
0.0172837
0.000542973
0.00140713
0.00138861
0.00296681
0.0025164
0.00191116
0.00230858
0.00267293
0.00438918
0.0069435
0.00803161
0.00849734
0.0103575
0.0123714
0.0133416
0.0139945
0.0147942
0.0154335
0.0161404
0.0166637
0.000587463
0.00142673
0.00143823
0.00297263
0.00256912
0.0019418
0.00237576
0.00274639
0.00442287
0.00694968
0.00801217
0.00841523
0.0102037
0.012211
0.0131188
0.0136513
0.0143827
0.0149869
0.015589
0.0160406
0.000635402
0.00144571
0.00148822
0.00297549
0.00262353
0.00197666
0.00243752
0.00282166
0.00445243
0.00694957
0.00799131
0.00832906
0.0100377
0.0120363
0.0128912
0.0132982
0.0139543
0.0145323
0.0150455
0.0154192
0.000686873
0.00146434
0.00153806
0.00297579
0.00267929
0.00201606
0.00249376
0.00289797
0.00447856
0.00694193
0.007968
0.00823935
0.00985955
0.0118457
0.0126581
0.0129379
0.0135099
0.0140687
0.0145109
0.0148051
0.000741911
0.00148282
0.00158734
0.00297401
0.00273582
0.0020602
0.00254453
0.00297452
0.00450218
0.006926
0.00794058
0.00814596
0.00966961
0.0116384
0.0124187
0.0125724
0.0130517
0.0135954
0.0139846
0.0142036
0.000800556
0.00150133
0.00163572
0.00297069
0.00279253
0.00210938
0.00258991
0.00305006
0.00452393
0.00690141
0.00790748
0.00804817
0.00946802
0.0114142
0.0121719
0.0122038
0.012582
0.0131123
0.0134657
0.0136184
0.000862794
0.00152007
0.00168208
0.00296631
0.00284907
0.00216404
0.00263015
0.00312275
0.00454387
0.00686812
0.00786782
0.0079455
0.00925472
0.0111726
0.011917
0.011834
0.0121027
0.0126197
0.0129529
0.0130508
0.00092863
0.00153921
0.00172715
0.0029615
0.00290479
0.0022245
0.00266604
0.00319075
0.00456145
0.0068261
0.00782115
0.00783824
0.00902931
0.0109118
0.0116532
0.0114654
0.0116163
0.0121182
0.0124453
0.0124989
0.000998009
0.00155889
0.00177159
0.00295691
0.00295853
0.00229065
0.0026989
0.00325264
0.0045761
0.00677533
0.00776684
0.00772679
0.00879163
0.0106302
0.0113792
0.0111004
0.0111252
0.0116068
0.011943
0.0119621
0.00107082
0.00157936
0.00181435
0.00295329
0.00300931
0.00236167
0.00273048
0.00330746
0.00458686
0.00671571
0.00770402
0.00761153
0.00854258
0.0103262
0.011093
0.0107416
0.0106329
0.0110829
0.0114444
0.0114432
0.00114692
0.00160097
0.00185492
0.00295172
0.00305644
0.00243577
0.00276275
0.00335522
0.00459182
0.00664613
0.00763194
0.00749376
0.00828398
0.00999837
0.0107915
0.0103907
0.0101453
0.0105451
0.0109442
0.0109429
0.00122605
0.00162429
0.00189283
0.0029528
0.00309999
0.00251061
0.00279667
0.00339689
0.00458933
0.00656486
0.0075496
0.00737518
0.00801875
0.00964564
0.01047
0.0100483
0.00966946
0.00999523
0.0104356
0.0104588
0.00130791
0.00165014
0.00192712
0.00295679
0.00314141
0.00258362
0.00283143
0.00343396
0.00457933
0.00647033
0.0074548
0.00725669
0.00775074
0.00926891
0.0101238
0.00971202
0.00921269
0.00943753
0.00991116
0.00998554
0.00139204
0.00167937
0.00195691
0.00296346
0.00318303
0.0026529
0.00286547
0.00346784
0.00456279
0.00636095
0.00734462
0.00713767
0.00748379
0.00887231
0.00975079
0.00937675
0.00877978
0.00888057
0.00936493
0.00951548
0.00147766
0.00171313
0.00198214
0.00297134
0.00322785
0.0027182
0.00289605
0.00349898
0.00454111
0.00623579
0.00721547
0.00701598
0.00722195
0.00846211
0.00935081
0.00903571
0.008371
0.00833499
0.00879585
0.00903759
0.00156388
0.0017526
0.00200302
0.0029783
0.00327861
0.002781
0.00291918
0.00352539
0.0045161
0.00609651
0.00706376
0.00688799
0.00696948
0.00804622
0.00892661
0.00868294
0.00798215
0.0078113
0.00820977
0.00853732
0.00164979
0.00179842
0.00202035
0.00298593
0.00333599
0.00284438
0.00293183
0.00354336
0.00448946
0.00594706
0.00688819
0.00674851
0.00672786
0.00763275
0.0084832
0.00831505
0.00760645
0.00731578
0.00762018
0.00800408
0.00173459
0.00185091
0.00203618
0.00298388
0.00339722
0.00291312
0.00293377
0.00354741
0.00446132
0.00579359
0.0066919
0.00659214
0.00649382
0.00722836
0.00802668
0.00792985
0.00723651
0.00684905
0.00704341
0.00743968
0.00181763
0.00190997
0.00205342
0.00296959
0.0034583
0.00299177
0.00292772
0.0035312
0.00442859
0.00564313
0.00647976
0.00641506
0.0062628
0.00683672
0.00756353
0.00752723
0.00686704
0.00640664
0.00649169
0.00685848
0.00189818
0.00197516
0.00207525
0.00294251
0.00351399
0.00308211
0.00291747
0.00349003
0.00438625
0.00550079
0.00626065
0.00621834
0.00602983
0.00645758
0.00709808
0.00710941
0.00649548
0.00598215
0.00596909
0.00627943
0.00197577
0.0020457
0.00210428
0.00290442
0.00355739
0.00318295
0.00291017
0.00342393
0.00432589
0.00536469
0.00604445
0.00600658
0.00579037
0.00608803
0.00663339
0.00667927
0.00612134
0.00557175
0.00547326
0.00571909
0.00205042
0.00212054
0.00214212
0.00285688
0.00358098
0.00328878
0.00291602
0.00333878
0.00423852
0.00523006
0.00583732
0.00578597
0.00554314
0.00572488
0.0061714
0.00623818
0.00574402
0.00517544
0.0050002
0.00518496
0.00212208
0.00219829
0.00219043
0.00280364
0.00357926
0.00339149
0.00294049
0.00324189
0.00411862
0.00508837
0.0056414
0.00556685
0.00529165
0.00536805
0.00571372
0.00578695
0.00536047
0.0047936
0.00454847
0.00467572
0.0021914
0.00227596
0.00224942
0.00275105
0.00355071
0.00348211
0.00298494
0.00314513
0.00396624
0.00492437
0.00545224
0.00535737
0.00504241
0.0050192
0.00526266
0.00532732
0.00496697
0.00442459
0.00412073
0.00418944
0.00225964
0.00235144
0.00231795
0.00270414
0.00349438
0.00354988
0.00304557
0.00306512
0.00378972
0.00472673
0.0052602
0.00515945
0.00480283
0.00468082
0.00482046
0.00486153
0.00455966
0.0040618
0.00371863
0.00372665
0.00232603
0.00242365
0.00239604
0.00266891
0.00341281
0.00358447
0.0031143
0.00301171
0.00360434
0.00449448
0.00504955
0.00497079
0.00458091
0.00435898
0.00439093
0.00439488
0.00413762
0.00369569
0.00333964
0.00329099
0.00239398
0.00248471
0.00247847
0.00264533
0.00330869
0.00358094
0.00318423
0.00298704
0.00342995
0.00423553
0.00480599
0.00477905
0.00437672
0.0040625
0.00398051
0.00393262
0.00370332
0.00331992
0.0029769
0.00288421
0.00246805
0.00255684
0.00255387
0.00262697
0.0031797
0.00353539
0.00324475
0.002987
0.00328007
0.00396453
0.00452712
0.004566
0.00418419
0.00379731
0.0035988
0.00348146
0.00326162
0.00293019
0.00261929
0.00250386
0.00254087
0.00260861
0.00262428
0.00263252
0.00306069
0.00345143
0.00327928
0.00300328
0.00315688
0.00369903
0.00422028
0.00431911
0.00398876
0.00355923
0.00325613
0.00305307
0.00282045
0.0025271
0.00225726
0.00214292
0.00261263
0.00265937
0.00268004
0.00265388
0.00295801
0.00333588
0.0032763
0.00302224
0.00305861
0.00345347
0.00389841
0.00403676
0.00377439
0.00333855
0.00295426
0.00265986
0.00238976
0.00211607
0.00188473
0.00178971
0.00268337
0.00270299
0.00272382
0.00268377
0.00287633
0.00320266
0.00323322
0.00302971
0.00298056
0.00323462
0.00358062
0.00372618
0.00353078
0.00312062
0.00268492
0.0023107
0.00198447
0.00170764
0.00150382
0.00143529
0.00274791
0.00274304
0.00275755
0.00271494
0.0028161
0.00306573
0.00315221
0.00301355
0.00291543
0.00304424
0.00328399
0.00340296
0.0032575
0.00289315
0.00243863
0.00200359
0.00161631
0.00131279
0.00112132
0.00107564
0.00280711
0.00277539
0.00278316
0.0027406
0.00277204
0.0029383
0.00304204
0.00296857
0.0028548
0.00288076
0.00301243
0.00308246
0.00296165
0.00264558
0.00220139
0.00172951
0.00129054
0.000944335
0.000745956
0.000715046
0.00286526
0.00281343
0.00279207
0.00275135
0.00273963
0.00282645
0.00291403
0.00289171
0.00278734
0.00273985
0.00276969
0.00277815
0.00265769
0.00237878
0.00196249
0.00147906
0.00100493
0.000614103
0.000388417
0.000360507
0.00290709
0.00283796
0.00279811
0.00275243
0.00271319
0.00273094
0.00278083
0.0027872
0.00270343
0.00261354
0.00255728
0.00249844
0.00236126
0.00210408
0.00171649
0.00124035
0.000750125
0.000325823
6.14134e-05
2.08696e-05
0.00294855
0.00286761
0.00279783
0.00274022
0.00268291
0.00264829
0.00265468
0.00266578
0.0026022
0.00249302
0.00237249
0.00224748
0.0020797
0.00183135
0.00146753
0.00100513
0.000513456
7.15972e-05
-0.000229273
-0.0002969
0.0029807
0.00288275
0.00279626
0.00272202
0.00264802
0.0025746
0.00253622
0.00253287
0.0024835
0.00237282
0.00220894
0.00202702
0.00182336
0.00157314
0.00122891
0.000782122
0.000294383
-0.000153099
-0.000480648
-0.000583843
0.00300599
0.00289874
0.0027881
0.0026941
0.00260479
0.00250479
0.00242671
0.00239731
0.00235228
0.00225187
0.00206495
0.00183771
0.00159628
0.00133143
0.00100096
0.000574082
9.46723e-05
-0.000351177
-0.000692345
-0.000828021
0.00302146
0.00290591
0.0027772
0.0026623
0.00255374
0.00243578
0.0023287
0.0022674
0.00221202
0.00212386
0.00193737
0.00168368
0.00141104
0.00112223
0.000790377
0.00038234
-8.50235e-05
-0.000528305
-0.000875109
-0.00103477
0.00302425
0.00289658
0.00276454
0.00263239
0.00249839
0.00236377
0.00223785
0.00215136
0.00207432
0.00198508
0.00180927
0.00155455
0.00126905
0.000968557
0.000626706
0.000226888
-0.000226532
-0.000667987
-0.00102126
-0.00120238
0.00302308
0.00289236
0.00273857
0.00258804
0.0024348
0.00228485
0.00214694
0.00204559
0.00195623
0.00185848
0.00168321
0.00143431
0.00115211
0.000855555
0.000517401
0.00012584
-0.000311905
-0.000749035
-0.00110868
-0.00130894
0.00300979
0.00287175
0.00270967
0.00254632
0.00236979
0.00220353
0.00205263
0.00193606
0.00184074
0.0017477
0.00158172
0.00134446
0.00107081
0.000784446
0.000459747
7.90926e-05
-0.000342758
-0.000773788
-0.00114087
-0.00135693
0.0029845
0.00283706
0.00267171
0.00250145
0.00230106
0.00211822
0.00195983
0.00183055
0.00172023
0.00163379
0.00149368
0.0012855
0.00103774
0.000769667
0.000470185
0.000112789
-0.000294991
-0.000722792
-0.00111087
-0.00136209
0.00295011
0.00282569
0.00265346
0.00246359
0.00224613
0.00204362
0.00187141
0.00172538
0.00160613
0.00153427
0.00145028
0.00131538
0.00113293
0.000910932
0.000653112
0.000354575
3.93678e-06
-0.000366892
-0.000748886
-0.00109076
0.00290301
0.00270661
0.00256166
0.00238099
0.00218867
0.00199579
0.0018023
0.00160436
0.00138167
0.00120315
0.00113021
0.0011335
0.00109767
0.000985713
0.000816865
0.000638617
0.000483549
0.000383464
0.000336795
0.000289092
0.0028839
0.00275351
0.00255569
0.00232279
0.00206662
0.00184241
0.00169746
0.00163633
0.00155913
0.00146939
0.00135874
0.00123527
0.00110364
0.000969746
0.000853705
0.000783257
0.00074992
0.000736165
0.00067329
0.000483546
0.00268552
0.00249297
0.00244505
0.00238733
0.00225073
0.00205449
0.00184808
0.00167972
0.00153263
0.00139573
0.0012409
0.00107424
0.000942458
0.000834241
0.000736309
0.000679709
0.000653725
0.000647946
0.000650576
0.000609329
0.00278426
0.0027154
0.00255432
0.002416
0.00223735
0.00204344
0.00182821
0.00166242
0.0015185
0.00137672
0.00126526
0.00116953
0.00108726
0.00101448
0.000876999
0.000669189
0.000361746
-6.78006e-05
-0.000590688
-0.00111704
0.0025846
0.00242412
0.00240624
0.00241037
0.00233721
0.00214483
0.00188808
0.00167849
0.00151367
0.00134886
0.00121679
0.00110664
0.000984248
0.000904561
0.00085167
0.000815226
0.000795138
0.000781333
0.000756865
0.000661164
0.00261875
0.00255633
0.00254221
0.00254692
0.00244103
0.00222906
0.00194947
0.00171045
0.00153648
0.00136913
0.00121902
0.00112263
0.0010474
0.00103127
0.00106916
0.00110942
0.00112106
0.00108722
0.00096848
0.000697604
0.0475856
0.0342901
0.0204791
0.0109285
0.00674729
0.00591423
0.00557061
0.00480758
0.00388621
0.00308978
0.00239178
0.00170833
0.00103317
0.000360951
-0.00030772
-0.00097374
-0.00164985
-0.00232062
-0.00297516
-0.00363721
-0.00432501
-0.00502505
-0.00568763
-0.00629035
-0.00688687
-0.00754378
-0.00824527
-0.00888446
-0.00941312
-0.00994313
-0.0105719
-0.0112285
-0.0118392
-0.012438
-0.0130654
-0.0136955
-0.0143127
-0.0149466
-0.0156156
-0.0162979
-0.0169872
-0.0176724
-0.01834
-0.0189896
-0.0196363
-0.0203006
-0.0209945
-0.0217234
-0.0224989
-0.0233162
-0.0241267
-0.0249066
-0.0256735
-0.0264865
-0.027319
-0.0281276
-0.0289398
-0.0298104
-0.0306745
-0.0315363
-0.0324533
-0.0334298
-0.0344138
-0.0354117
-0.0364226
-0.0374118
-0.0383862
-0.0393775
-0.0403784
-0.0414212
-0.0425688
-0.043729
-0.0448714
-0.0459841
-0.0471383
-0.0483072
-0.0495169
-0.0507753
-0.05204
-0.0533158
-0.0546245
-0.0559743
-0.0573108
-0.0586648
-0.0600642
-0.0614655
-0.0629187
-0.0643539
-0.0658233
-0.0673088
-0.0688379
-0.0704112
-0.0720011
-0.0736119
-0.0752513
-0.0769849
-0.0787072
-0.0805803
-0.0823829
-0.0840693
0.0452843
0.0340238
0.0205415
0.0110714
0.00684988
0.00596489
0.0056009
0.00482789
0.00390053
0.00310095
0.0024012
0.00171642
0.00104017
0.000367044
-0.000302372
-0.000968969
-0.00164561
-0.00231686
-0.00297174
-0.00363406
-0.00432212
-0.00502247
-0.00568537
-0.00628828
-0.00688488
-0.00754189
-0.00824364
-0.00888312
-0.00941188
-0.00994186
-0.0105707
-0.0112275
-0.0118383
-0.0124371
-0.0130646
-0.0136948
-0.014312
-0.0149459
-0.0156149
-0.0162973
-0.0169866
-0.0176718
-0.0183395
-0.0189891
-0.0196358
-0.0203001
-0.020994
-0.0217228
-0.0224984
-0.0233157
-0.0241263
-0.0249061
-0.0256731
-0.0264861
-0.0273186
-0.0281273
-0.0289395
-0.02981
-0.0306741
-0.031536
-0.032453
-0.0334294
-0.0344135
-0.0354114
-0.0364224
-0.0374116
-0.038386
-0.0393773
-0.0403782
-0.0414209
-0.0425686
-0.0437288
-0.0448712
-0.0459839
-0.0471382
-0.048307
-0.0495167
-0.0507751
-0.0520399
-0.0533157
-0.0546244
-0.0559742
-0.0573107
-0.0586647
-0.060064
-0.0614654
-0.0629186
-0.0643537
-0.0658232
-0.0673087
-0.0688378
-0.0704111
-0.072001
-0.0736118
-0.0752512
-0.0769848
-0.0787071
-0.0805802
-0.082383
-0.0840694
0.0436668
0.0338626
0.0207143
0.0113462
0.00702786
0.0060308
0.00562852
0.00484844
0.00391783
0.00311471
0.00241196
0.00172525
0.00104777
0.000373552
-0.000296881
-0.000964236
-0.00164146
-0.00231322
-0.00296853
-0.00363117
-0.00431948
-0.0050201
-0.00568327
-0.00628635
-0.00688305
-0.0075402
-0.00824219
-0.0088819
-0.00941068
-0.00994064
-0.0105696
-0.0112266
-0.0118375
-0.0124363
-0.0130639
-0.0136942
-0.0143114
-0.0149453
-0.0156143
-0.0162968
-0.0169861
-0.0176713
-0.0183391
-0.0189886
-0.0196353
-0.0202997
-0.0209935
-0.0217224
-0.022498
-0.0233153
-0.0241259
-0.0249058
-0.0256727
-0.0264857
-0.0273183
-0.028127
-0.0289392
-0.0298097
-0.0306739
-0.0315357
-0.0324527
-0.0334292
-0.0344133
-0.0354112
-0.0364222
-0.0374114
-0.0383858
-0.0393771
-0.040378
-0.0414207
-0.0425684
-0.0437287
-0.0448711
-0.0459838
-0.047138
-0.0483069
-0.0495166
-0.050775
-0.0520398
-0.0533156
-0.0546243
-0.055974
-0.0573106
-0.0586645
-0.0600639
-0.0614653
-0.0629185
-0.0643537
-0.0658231
-0.0673086
-0.0688377
-0.0704111
-0.0720009
-0.0736117
-0.0752511
-0.0769848
-0.0787071
-0.0805802
-0.0823831
-0.0840698
0.0421239
0.0336197
0.0208996
0.0116711
0.00725963
0.00611972
0.00566587
0.00487817
0.00394438
0.00313517
0.00242643
0.00173632
0.00105747
0.000382166
-0.000289599
-0.000958073
-0.00163603
-0.00230847
-0.00296456
-0.00362782
-0.00431634
-0.00501705
-0.00568051
-0.00628403
-0.00688103
-0.00753829
-0.00824039
-0.00888025
-0.00940914
-0.00993918
-0.0105683
-0.0112255
-0.0118365
-0.0124354
-0.0130631
-0.0136935
-0.0143107
-0.0149446
-0.0156138
-0.0162963
-0.0169857
-0.0176709
-0.0183386
-0.0189882
-0.0196349
-0.0202992
-0.020993
-0.0217219
-0.0224975
-0.0233149
-0.0241256
-0.0249054
-0.0256723
-0.0264854
-0.0273179
-0.0281267
-0.0289388
-0.0298094
-0.0306736
-0.0315353
-0.0324524
-0.0334289
-0.034413
-0.035411
-0.036422
-0.0374112
-0.0383855
-0.0393769
-0.0403778
-0.0414204
-0.0425682
-0.0437286
-0.0448709
-0.0459836
-0.0471379
-0.0483067
-0.0495164
-0.0507749
-0.0520396
-0.0533154
-0.0546241
-0.0559739
-0.0573105
-0.0586644
-0.0600638
-0.0614652
-0.0629184
-0.0643536
-0.065823
-0.0673085
-0.0688376
-0.070411
-0.0720008
-0.0736117
-0.075251
-0.0769847
-0.078707
-0.0805802
-0.0823831
-0.0840703
0.0405832
0.0332842
0.0210745
0.0120052
0.00750857
0.00621816
0.00570654
0.00491371
0.00397935
0.00316299
0.00244575
0.00175072
0.00107017
0.000393764
-0.000279676
-0.000949657
-0.00162843
-0.00230171
-0.00295918
-0.00362359
-0.00431226
-0.0050126
-0.00567629
-0.00628079
-0.00687863
-0.00753595
-0.00823774
-0.00887765
-0.00940694
-0.00993731
-0.0105666
-0.0112239
-0.011835
-0.0124342
-0.013062
-0.0136924
-0.0143097
-0.0149438
-0.0156131
-0.0162957
-0.0169851
-0.0176704
-0.0183382
-0.0189878
-0.0196344
-0.0202987
-0.0209925
-0.0217214
-0.0224971
-0.0233145
-0.0241252
-0.0249051
-0.025672
-0.026485
-0.0273176
-0.0281263
-0.0289384
-0.0298091
-0.0306733
-0.031535
-0.0324521
-0.0334286
-0.0344127
-0.0354107
-0.0364218
-0.037411
-0.0383853
-0.0393767
-0.0403775
-0.0414202
-0.042568
-0.0437284
-0.0448708
-0.0459835
-0.0471377
-0.0483066
-0.0495163
-0.0507747
-0.0520395
-0.0533153
-0.054624
-0.0559738
-0.0573104
-0.0586643
-0.0600637
-0.0614651
-0.0629183
-0.0643535
-0.0658229
-0.0673084
-0.0688375
-0.0704109
-0.0720007
-0.0736116
-0.0752509
-0.0769846
-0.0787069
-0.0805801
-0.0823833
-0.0840711
0.0390646
0.0328757
0.0212395
0.0123388
0.00776359
0.00631991
0.00574525
0.00494951
0.00401812
0.00319523
0.00246843
0.0017677
0.00108535
0.000407914
-0.00026738
-0.000939046
-0.00161848
-0.00229261
-0.00295203
-0.0036183
-0.00430711
-0.00500647
-0.00567013
-0.00627624
-0.00687569
-0.00753302
-0.00823391
-0.0088737
-0.00940388
-0.00993496
-0.0105642
-0.0112214
-0.0118328
-0.0124324
-0.0130605
-0.0136909
-0.0143084
-0.0149427
-0.0156122
-0.0162949
-0.0169845
-0.0176699
-0.0183377
-0.0189874
-0.0196339
-0.020298
-0.0209919
-0.0217209
-0.0224966
-0.0233141
-0.0241247
-0.0249047
-0.0256716
-0.0264845
-0.0273171
-0.0281259
-0.0289381
-0.0298087
-0.0306729
-0.0315346
-0.0324517
-0.0334283
-0.0344124
-0.0354104
-0.0364215
-0.0374107
-0.038385
-0.0393764
-0.0403773
-0.0414198
-0.0425677
-0.0437282
-0.0448706
-0.0459833
-0.0471375
-0.0483064
-0.0495161
-0.0507746
-0.0520394
-0.0533152
-0.0546239
-0.0559737
-0.0573103
-0.0586642
-0.0600636
-0.061465
-0.0629182
-0.0643534
-0.0658228
-0.0673083
-0.0688374
-0.0704108
-0.0720006
-0.0736115
-0.0752508
-0.0769845
-0.0787068
-0.08058
-0.0823833
-0.0840721
0.0375839
0.0324016
0.0213868
0.0126662
0.00802265
0.00642544
0.00578192
0.00498387
0.00405847
0.00323005
0.00249319
0.00178629
0.00110209
0.000423632
-0.00025366
-0.000926999
-0.00160673
-0.00228147
-0.00294322
-0.00361193
-0.00430091
-0.00499872
-0.00566204
-0.00627029
-0.00687209
-0.00752941
-0.00822874
-0.0088682
-0.00939988
-0.00993214
-0.0105612
-0.011218
-0.0118299
-0.0124302
-0.0130584
-0.0136887
-0.0143064
-0.0149411
-0.015611
-0.016294
-0.0169837
-0.0176692
-0.0183372
-0.018987
-0.0196334
-0.0202973
-0.0209912
-0.0217204
-0.0224962
-0.0233135
-0.0241242
-0.0249043
-0.0256712
-0.0264841
-0.0273166
-0.0281254
-0.0289376
-0.0298083
-0.0306725
-0.0315341
-0.0324513
-0.0334279
-0.0344121
-0.0354101
-0.0364213
-0.0374104
-0.0383847
-0.0393761
-0.0403769
-0.0414194
-0.0425674
-0.043728
-0.0448704
-0.045983
-0.0471373
-0.0483062
-0.0495158
-0.0507744
-0.0520392
-0.053315
-0.0546237
-0.0559736
-0.0573101
-0.058664
-0.0600635
-0.0614648
-0.0629181
-0.0643533
-0.0658227
-0.0673082
-0.0688372
-0.0704107
-0.0720005
-0.0736114
-0.0752506
-0.0769844
-0.0787067
-0.0805798
-0.0823834
-0.0840733
0.0361532
0.0318617
0.0215054
0.0129845
0.00828762
0.00653781
0.0058178
0.00501611
0.00409935
0.00326669
0.00251948
0.00180601
0.00111986
0.000440303
-0.000239151
-0.000914164
-0.00159386
-0.00226891
-0.00293312
-0.00360466
-0.00429386
-0.00498969
-0.00565239
-0.00626314
-0.00686786
-0.00752514
-0.0082223
-0.00886121
-0.00939496
-0.0099289
-0.0105575
-0.0112136
-0.0118261
-0.0124273
-0.0130557
-0.013686
-0.0143038
-0.014939
-0.0156092
-0.0162925
-0.0169825
-0.0176683
-0.0183367
-0.0189866
-0.0196329
-0.0202965
-0.0209903
-0.0217198
-0.0224956
-0.0233128
-0.0241235
-0.0249038
-0.0256708
-0.0264836
-0.027316
-0.028125
-0.0289372
-0.0298079
-0.0306719
-0.0315336
-0.0324508
-0.0334275
-0.0344117
-0.0354098
-0.0364211
-0.0374101
-0.0383843
-0.0393758
-0.0403766
-0.041419
-0.0425671
-0.0437278
-0.0448702
-0.0459828
-0.047137
-0.0483059
-0.0495156
-0.0507742
-0.052039
-0.0533148
-0.0546235
-0.0559735
-0.05731
-0.0586639
-0.0600634
-0.0614647
-0.0629179
-0.0643532
-0.0658225
-0.0673081
-0.0688371
-0.0704106
-0.0720004
-0.0736112
-0.0752504
-0.0769842
-0.0787065
-0.0805795
-0.0823833
-0.0840748
0.0347795
0.0312584
0.0215891
0.0132936
0.00856019
0.00665859
0.00585285
0.00504485
0.00413961
0.00330467
0.00254706
0.00182657
0.00113831
0.000457626
-0.000224093
-0.000900827
-0.0015803
-0.00225545
-0.00292215
-0.00359672
-0.00428619
-0.00497978
-0.00564165
-0.00625509
-0.0068631
-0.00752034
-0.00821491
-0.00885306
-0.00938924
-0.00992525
-0.0105533
-0.0112085
-0.0118217
-0.0124241
-0.0130527
-0.0136828
-0.0143008
-0.0149363
-0.0156069
-0.0162905
-0.0169808
-0.0176669
-0.0183359
-0.0189863
-0.0196325
-0.0202957
-0.0209893
-0.0217191
-0.0224949
-0.0233119
-0.0241225
-0.0249032
-0.0256705
-0.026483
-0.0273154
-0.0281245
-0.0289369
-0.0298074
-0.0306713
-0.0315331
-0.0324503
-0.0334269
-0.0344111
-0.0354095
-0.0364209
-0.0374098
-0.0383839
-0.0393755
-0.0403762
-0.0414185
-0.0425667
-0.0437275
-0.0448699
-0.0459824
-0.0471366
-0.0483056
-0.0495152
-0.0507739
-0.0520388
-0.0533145
-0.0546233
-0.0559733
-0.0573098
-0.0586637
-0.0600632
-0.0614646
-0.0629178
-0.064353
-0.0658224
-0.067308
-0.068837
-0.0704105
-0.0720002
-0.0736111
-0.0752502
-0.0769839
-0.0787063
-0.080579
-0.0823831
-0.0840766
0.0334698
0.0305998
0.0216347
0.0135912
0.00883839
0.0067875
0.00588689
0.00506906
0.0041783
0.00334368
0.00257583
0.00184777
0.00115718
0.0004754
-0.00020861
-0.000887122
-0.0015663
-0.00224138
-0.00291057
-0.0035883
-0.00427808
-0.00496929
-0.00563015
-0.00624635
-0.00685791
-0.0075152
-0.00820696
-0.00884416
-0.0093829
-0.00992121
-0.0105488
-0.0112029
-0.0118168
-0.0124204
-0.0130494
-0.0136794
-0.0142977
-0.0149335
-0.0156041
-0.0162879
-0.0169784
-0.0176649
-0.0183346
-0.0189859
-0.0196322
-0.020295
-0.0209884
-0.0217183
-0.0224941
-0.0233106
-0.0241211
-0.0249024
-0.02567
-0.0264824
-0.0273146
-0.0281241
-0.0289367
-0.029807
-0.0306707
-0.0315325
-0.0324497
-0.0334262
-0.0344104
-0.035409
-0.0364206
-0.0374095
-0.0383836
-0.0393752
-0.0403758
-0.0414179
-0.0425662
-0.0437271
-0.0448696
-0.0459821
-0.0471363
-0.0483052
-0.0495149
-0.0507735
-0.0520384
-0.0533142
-0.054623
-0.055973
-0.0573096
-0.0586635
-0.0600631
-0.0614644
-0.0629177
-0.0643529
-0.0658222
-0.0673078
-0.0688368
-0.0704103
-0.0720001
-0.0736109
-0.0752499
-0.0769836
-0.0787061
-0.0805783
-0.0823826
-0.0840785
0.0322292
0.0298959
0.0216376
0.0138723
0.00911915
0.00692493
0.00592109
0.00508862
0.00421469
0.00338342
0.0026058
0.00186952
0.00117625
0.000493374
-0.000192917
-0.000873224
-0.00155201
-0.00222689
-0.00289854
-0.00357955
-0.00426969
-0.00495837
-0.00561802
-0.00623699
-0.00685232
-0.00750983
-0.00819871
-0.00883481
-0.00937614
-0.00991683
-0.0105439
-0.011197
-0.0118115
-0.0124165
-0.0130458
-0.0136758
-0.0142945
-0.0149306
-0.0156012
-0.0162848
-0.0169755
-0.0176624
-0.0183329
-0.0189851
-0.0196319
-0.0202944
-0.0209877
-0.0217178
-0.0224933
-0.023309
-0.0241194
-0.0249013
-0.0256694
-0.0264815
-0.0273136
-0.0281236
-0.0289367
-0.0298067
-0.0306702
-0.0315321
-0.0324492
-0.0334254
-0.0344095
-0.0354082