/*--------------------------------*- C++ -*----------------------------------*\
| =========                 |                                                 |
| \\      /  F ield         | OpenFOAM: The Open Source CFD Toolbox           |
|  \\    /   O peration     | Version:  2506                                  |
|   \\  /    A nd           | Website:  www.openfoam.com                      |
|    \\/     M anipulation  |                                                 |
\*---------------------------------------------------------------------------*/
FoamFile
{
    version     2.0;
    format      ascii;
    arch        "LSB;label=32;scalar=64";
    class       volVectorField;
    location    "9";
    object      U;
}
// * * * * * * * * * * * * * * * * * * * * * * * * * * * * * * * * * * * * * //

dimensions      [0 1 -1 0 0 0 0];

internalField   nonuniform List<vector> 
9600
(
(0.731508 -0.00676369 0)
(1.22088 0.00335691 0)
(0.904513 0.00279804 0)
(1.13072 0.0222535 0)
(0.846577 -0.0192055 0)
(1.08101 -0.0312825 0)
(0.961 -0.0320886 0)
(1.14141 -0.00733464 0)
(1.02143 -0.000281484 0)
(1.11346 0.0172301 0)
(1.00519 0.0126672 0)
(1.10398 0.00851978 0)
(1.01873 -0.00556015 0)
(1.10372 -0.015829 0)
(0.99435 -0.0264561 0)
(1.07584 -0.0284241 0)
(0.954999 -0.0258586 0)
(1.07779 -0.0331624 0)
(0.913829 -0.0136011 0)
(1.10499 -0.0341351 0)
(0.755143 -0.00657811 0)
(1.20462 0.00238043 0)
(0.928105 0.00321733 0)
(1.115 0.0228576 0)
(0.904653 -0.0187053 0)
(1.02841 -0.03254 0)
(0.96036 -0.0332623 0)
(1.1191 -0.00803923 0)
(1.03577 -0.000127341 0)
(1.09622 0.0175173 0)
(1.03396 0.0128184 0)
(1.08115 0.00837725 0)
(1.06362 -0.00553798 0)
(1.06758 -0.0152845 0)
(1.04513 -0.0253914 0)
(1.01942 -0.0275502 0)
(1.01457 -0.0253675 0)
(0.993644 -0.0328776 0)
(1.0014 -0.0129723 0)
(0.989177 -0.0360244 0)
(0.794982 -0.00642929 0)
(1.16895 0.00127366 0)
(0.965908 0.00381169 0)
(1.09243 0.0232434 0)
(0.94253 -0.0178691 0)
(0.987363 -0.0327191 0)
(0.962776 -0.0341344 0)
(1.08335 -0.00889312 0)
(1.04943 0.000121977 0)
(1.07641 0.0175926 0)
(1.0569 0.0129924 0)
(1.07841 0.00789225 0)
(1.0779 -0.00523585 0)
(1.06828 -0.0149386 0)
(1.04697 -0.0243352 0)
(1.01961 -0.0269098 0)
(1.00831 -0.0248846 0)
(0.992913 -0.0318766 0)
(0.994595 -0.0147834 0)
(0.993485 -0.0308541 0)
(0.843515 -0.00627283 0)
(1.12122 0.000207979 0)
(1.00131 0.0042419 0)
(1.06886 0.0235214 0)
(0.970425 -0.016881 0)
(0.96204 -0.0328881 0)
(0.960047 -0.0351317 0)
(1.04589 -0.00993883 0)
(1.051 0.00010092 0)
(1.06372 0.0173481 0)
(1.06941 0.0128475 0)
(1.0851 0.00755878 0)
(1.08703 -0.00496829 0)
(1.07331 -0.0143155 0)
(1.04963 -0.0231659 0)
(1.02194 -0.0260254 0)
(1.00668 -0.0239863 0)
(0.991272 -0.0316756 0)
(0.989796 -0.0145178 0)
(0.987192 -0.0294622 0)
(0.891938 -0.00607641 0)
(1.07355 -0.000814197 0)
(1.02344 0.00448563 0)
(1.04896 0.0238178 0)
(0.9879 -0.015794 0)
(0.953381 -0.0326559 0)
(0.953801 -0.0358954 0)
(1.0148 -0.0110409 0)
(1.04196 -0.000296748 0)
(1.05673 0.0168722 0)
(1.07678 0.0124486 0)
(1.09347 0.00723135 0)
(1.09459 -0.00461137 0)
(1.07718 -0.0135711 0)
(1.05152 -0.0218704 0)
(1.0228 -0.0250266 0)
(1.00686 -0.0231327 0)
(0.989978 -0.0309731 0)
(0.987188 -0.0145847 0)
(0.983669 -0.0280701 0)
(0.932929 -0.00586307 0)
(1.03571 -0.00168105 0)
(1.03039 0.0045639 0)
(1.03461 0.0241419 0)
(0.999449 -0.0148198 0)
(0.956044 -0.0322613 0)
(0.948813 -0.0364356 0)
(0.992664 -0.0121398 0)
(1.02935 -0.00101722 0)
(1.05249 0.0161255 0)
(1.0824 0.0118162 0)
(1.10083 0.0068586 0)
(1.10001 -0.00414652 0)
(1.07914 -0.0126835 0)
(1.05175 -0.0204556 0)
(1.02319 -0.0239529 0)
(1.00672 -0.0221941 0)
(0.989946 -0.0301449 0)
(0.985049 -0.0147757 0)
(0.982057 -0.0265515 0)
(0.962729 -0.00565971 0)
(1.01147 -0.00232153 0)
(1.02612 0.00449615 0)
(1.02611 0.0243806 0)
(1.00828 -0.0139675 0)
(0.964082 -0.0316953 0)
(0.947815 -0.0366929 0)
(0.979399 -0.0131967 0)
(1.01896 -0.00197418 0)
(1.05067 0.015041 0)
(1.08751 0.0109855 0)
(1.10622 0.00648078 0)
(1.10244 -0.00353456 0)
(1.07841 -0.0116569 0)
(1.04999 -0.0189533 0)
(1.02266 -0.0228315 0)
(1.00634 -0.0212547 0)
(0.990279 -0.0291792 0)
(0.983661 -0.0149689 0)
(0.980921 -0.0249653 0)
(0.981353 -0.00548457 0)
(0.999057 -0.0027314 0)
(1.0165 0.0043109 0)
(1.02279 0.0244595 0)
(1.01614 -0.0132469 0)
(0.973772 -0.03105 0)
(0.950517 -0.03674 0)
(0.973871 -0.0142045 0)
(1.0133 -0.00311896 0)
(1.05164 0.0136447 0)
(1.09196 0.010044 0)
(1.10861 0.00616924 0)
(1.10116 -0.00275408 0)
(1.07469 -0.0105022 0)
(1.04638 -0.0174223 0)
(1.02113 -0.0217102 0)
(1.00581 -0.0203388 0)
(0.990684 -0.0281028 0)
(0.983011 -0.0151399 0)
(0.979998 -0.023386 0)
(0.991329 -0.00534172 0)
(0.99406 -0.0029447 0)
(1.00643 0.00404101 0)
(1.02325 0.0243429 0)
(1.02335 -0.0126088 0)
(0.983392 -0.0303436 0)
(0.955298 -0.0366298 0)
(0.973908 -0.0151691 0)
(1.01181 -0.00441159 0)
(1.05422 0.0120386 0)
(1.0942 0.00910154 0)
(1.10673 0.00597696 0)
(1.09563 -0.00181006 0)
(1.06808 -0.00926139 0)
(1.04109 -0.0159217 0)
(1.01866 -0.0206196 0)
(1.00496 -0.0194779 0)
(0.991082 -0.0269444 0)
(0.98287 -0.0152785 0)
(0.979395 -0.0218218 0)
(0.995949 -0.00522086 0)
(0.99246 -0.00302003 0)
(0.998519 0.00370205 0)
(1.0255 0.0240354 0)
(1.02934 -0.0120183 0)
(0.992146 -0.0295934 0)
(0.960802 -0.036401 0)
(0.976603 -0.0161137 0)
(1.01195 -0.00577245 0)
(1.05558 0.010336 0)
(1.09198 0.00826631 0)
(1.09957 0.00594937 0)
(1.08576 -0.000736715 0)
(1.05905 -0.00799936 0)
(1.03457 -0.0145107 0)
(1.01545 -0.0195882 0)
(1.00374 -0.0187193 0)
(0.991376 -0.0257356 0)
(0.983077 -0.015367 0)
(0.979202 -0.020277 0)
(0.997924 -0.00510922 0)
(0.991989 -0.00300723 0)
(0.993372 0.00330401 0)
(1.02739 0.0235652 0)
(1.03332 -0.0114616 0)
(0.999455 -0.0288072 0)
(0.966363 -0.0360638 0)
(0.979308 -0.0169988 0)
(1.01081 -0.0071242 0)
(1.05267 0.0086481 0)
(1.08366 0.0076045 0)
(1.08697 0.00607654 0)
(1.07226 0.000388111 0)
(1.04845 -0.00679891 0)
(1.02752 -0.0132473 0)
(1.01182 -0.0186417 0)
(1.00223 -0.0180874 0)
(0.991461 -0.024509 0)
(0.983486 -0.0153983 0)
(0.979409 -0.0187901 0)
(0.99888 -0.00499892 0)
(0.991872 -0.00294498 0)
(0.990559 0.00286791 0)
(1.02729 0.0229766 0)
(1.03488 -0.0109454 0)
(1.00488 -0.0280142 0)
(0.971724 -0.0356048 0)
(0.980559 -0.0177816 0)
(1.00673 -0.00837606 0)
(1.04396 0.00707761 0)
(1.06924 0.00712525 0)
(1.07008 0.00629398 0)
(1.05665 0.00145029 0)
(1.03737 -0.00574692 0)
(1.02068 -0.0121783 0)
(1.00814 -0.0177978 0)
(1.00059 -0.0175781 0)
(0.991317 -0.0233127 0)
(0.983946 -0.0153784 0)
(0.979907 -0.0174126 0)
(0.999534 -0.00488829 0)
(0.991981 -0.00285892 0)
(0.989419 0.0024287 0)
(1.02477 0.0223162 0)
(1.0343 -0.0104827 0)
(1.0083 -0.0272523 0)
(0.976681 -0.0350272 0)
(0.980291 -0.018405 0)
(1.00002 -0.00942541 0)
(1.03038 0.00569175 0)
(1.05076 0.00678983 0)
(1.05123 0.00650023 0)
(1.04095 0.00233679 0)
(1.02699 -0.00491177 0)
(1.01469 -0.0113301 0)
(1.00481 -0.0170541 0)
(0.998991 -0.017178 0)
(0.991005 -0.0221861 0)
(0.984334 -0.01531 0)
(0.980523 -0.0161809 0)
(1.0001 -0.00478017 0)
(0.992276 -0.00275934 0)
(0.989322 0.00202447 0)
(1.02059 0.0216244 0)
(1.03237 -0.0100853 0)
(1.01002 -0.0265538 0)
(0.980965 -0.0343511 0)
(0.979315 -0.0188149 0)
(0.992441 -0.0102109 0)
(1.01489 0.00451353 0)
(1.0316 0.00653185 0)
(1.03328 0.00660161 0)
(1.0271 0.00298112 0)
(1.01825 -0.00431882 0)
(1.00992 -0.0106982 0)
(1.00211 -0.0163992 0)
(0.997591 -0.0168637 0)
(0.990629 -0.0211388 0)
(0.984602 -0.0151957 0)
(0.981097 -0.0151126 0)
(1.0006 -0.00467685 0)
(0.992679 -0.00265274 0)
(0.98972 0.00167782 0)
(1.01601 0.0209258 0)
(1.02995 -0.0097488 0)
(1.0106 -0.0259351 0)
(0.984342 -0.0336022 0)
(0.978491 -0.01903 0)
(0.985884 -0.0107198 0)
(1.00081 0.00353282 0)
(1.01496 0.00629374 0)
(1.01849 0.00655179 0)
(1.01629 0.00336412 0)
(1.0116 -0.00394935 0)
(1.00641 -0.0102522 0)
(1.00013 -0.0158153 0)
(0.996475 -0.0165981 0)
(0.990279 -0.0201748 0)
(0.984773 -0.0150195 0)
(0.981545 -0.014214 0)
(1.001 -0.00457737 0)
(0.993121 -0.00254635 0)
(0.99022 0.00139012 0)
(1.01199 0.0202277 0)
(1.02763 -0.00946021 0)
(1.01056 -0.0253879 0)
(0.986756 -0.0328088 0)
(0.978208 -0.0190944 0)
(0.981338 -0.0109838 0)
(0.99022 0.00272015 0)
(1.00259 0.00604088 0)
(1.00781 0.00634284 0)
(1.00873 0.00350692 0)
(1.00698 -0.00375094 0)
(1.004 -0.00995238 0)
(0.998772 -0.0152783 0)
(0.995661 -0.0163442 0)
(0.990012 -0.01929 0)
(0.984905 -0.0147797 0)
(0.981874 -0.0134736 0)
(1.00129 -0.00448123 0)
(0.993563 -0.00244269 0)
(0.990642 0.00115521 0)
(1.00894 0.0195281 0)
(1.02563 -0.00920284 0)
(1.01028 -0.0248953 0)
(0.988346 -0.0319804 0)
(0.9784 -0.0190505 0)
(0.978736 -0.0110648 0)
(0.983402 0.00203572 0)
(0.9945 0.00576124 0)
(1.00091 0.00601436 0)
(1.00391 0.00346619 0)
(1.00398 -0.00366255 0)
(1.0024 -0.00975176 0)
(0.997892 -0.014772 0)
(0.99511 -0.0160727 0)
(0.989851 -0.0184723 0)
(0.985053 -0.0144874 0)
(0.98214 -0.0128576 0)
(1.00146 -0.00438767 0)
(0.993979 -0.00234228 0)
(0.990967 0.000965515 0)
(1.0068 0.0188214 0)
(1.02396 -0.00896215 0)
(1.00994 -0.0244413 0)
(0.989346 -0.0311205 0)
(0.978838 -0.0189343 0)
(0.977484 -0.0110197 0)
(0.97952 0.0014476 0)
(0.989687 0.00545169 0)
(0.996797 0.00561022 0)
(1.001 0.00329863 0)
(1.0021 -0.00364361 0)
(1.00137 -0.00960768 0)
(0.997335 -0.0142877 0)
(0.994765 -0.0157684 0)
(0.989795 -0.0177153 0)
(0.985244 -0.0141412 0)
(0.982398 -0.0123248 0)
(1.00151 -0.00429541 0)
(0.994347 -0.00224449 0)
(0.991247 0.000812152 0)
(1.00538 0.0181041 0)
(1.02255 -0.00872906 0)
(1.00959 -0.024011 0)
(0.98997 -0.0302362 0)
(0.979355 -0.0187726 0)
(0.977001 -0.0108941 0)
(0.977515 0.000925091 0)
(0.986985 0.00511484 0)
(0.994453 0.00515904 0)
(0.999291 0.00304133 0)
(1.00093 -0.00366016 0)
(1.0007 -0.00949381 0)
(0.99699 -0.0138237 0)
(0.994566 -0.0154278 0)
(0.989833 -0.0170025 0)
(0.985486 -0.0137598 0)
(0.982682 -0.0118393 0)
(1.00146 -0.00420172 0)
(0.994651 -0.002153 0)
(0.99152 0.000688332 0)
(1.00449 0.0173719 0)
(1.02134 -0.00849498 0)
(1.00923 -0.0235957 0)
(0.990369 -0.0293321 0)
(0.979888 -0.0185788 0)
(0.976938 -0.0107242 0)
(0.97661 0.000449047 0)
(0.985552 0.00475187 0)
(0.99318 0.00468201 0)
(0.9983 0.00271839 0)
(1.00019 -0.00369443 0)
(1.00026 -0.0093937 0)
(0.996782 -0.013377 0)
(0.994468 -0.0150469 0)
(0.989946 -0.0163396 0)
(0.985775 -0.0133547 0)
(0.983003 -0.0113747 0)
(1.00133 -0.00410447 0)
(0.994888 -0.00207038 0)
(0.991795 0.000585397 0)
(1.00398 0.0166239 0)
(1.02028 -0.00825482 0)
(1.00888 -0.0231879 0)
(0.990635 -0.0284114 0)
(0.980433 -0.0183599 0)
(0.977137 -0.0105357 0)
(0.976368 5.05747e-06 0)
(0.984891 0.00436365 0)
(0.992558 0.0041925 0)
(0.997736 0.00236012 0)
(0.999698 -0.00374223 0)
(0.999944 -0.00929794 0)
(0.996657 -0.0129396 0)
(0.99443 -0.0146347 0)
(0.990117 -0.0157126 0)
(0.986105 -0.0129383 0)
(0.98336 -0.0109269 0)
(1.00117 -0.00400271 0)
(0.995069 -0.00199599 0)
(0.992068 0.000497172 0)
(1.00371 0.0158585 0)
(1.01932 -0.00800582 0)
(1.00853 -0.0227824 0)
(0.990829 -0.0274809 0)
(0.980996 -0.0181195 0)
(0.97753 -0.0103436 0)
(0.976543 -0.000410208 0)
(0.984718 0.00394604 0)
(0.992335 0.00370021 0)
(0.997422 0.00197021 0)
(0.999338 -0.00379947 0)
(0.999688 -0.0091985 0)
(0.996574 -0.0125234 0)
(0.994425 -0.0141811 0)
(0.990326 -0.0151045 0)
(0.986468 -0.0125253 0)
(0.983745 -0.0104968 0)
(1.00101 -0.00389454 0)
(0.995208 -0.00193216 0)
(0.992335 0.000420113 0)
(1.00358 0.0150767 0)
(1.01843 -0.00774454 0)
(1.00817 -0.0223724 0)
(0.99099 -0.0265452 0)
(0.981571 -0.0178603 0)
(0.978071 -0.0101598 0)
(0.976976 -0.000803747 0)
(0.984841 0.00350122 0)
(0.992332 0.00320771 0)
(0.997237 0.00155613 0)
(0.999032 -0.00386037 0)
(0.999446 -0.00908911 0)
(0.996505 -0.0121268 0)
(0.99443 -0.0136971 0)
(0.990556 -0.0145141 0)
(0.986855 -0.0121082 0)
(0.984154 -0.0100771 0)
(1.00087 -0.00377912 0)
(0.995323 -0.00188046 0)
(0.992599 0.000353227 0)
(1.00347 0.0142789 0)
(1.01758 -0.00747206 0)
(1.00778 -0.0219525 0)
(0.991143 -0.0256086 0)
(0.982148 -0.0175869 0)
(0.978719 -0.00998857 0)
(0.977548 -0.00117977 0)
(0.985124 0.00304279 0)
(0.992429 0.00271287 0)
(0.997102 0.00114096 0)
(0.99873 -0.00392099 0)
(0.999195 -0.00896711 0)
(0.996432 -0.0117388 0)
(0.994434 -0.0132106 0)
(0.990795 -0.0139345 0)
(0.987262 -0.0116981 0)
(0.984578 -0.00965409 0)
(1.00076 -0.00365665 0)
(0.995432 -0.0018395 0)
(0.99287 0.000293772 0)
(1.00334 0.0134671 0)
(1.01676 -0.0071897 0)
(1.00738 -0.0215204 0)
(0.991304 -0.024676 0)
(0.982714 -0.0172987 0)
(0.979435 -0.00984038 0)
(0.978182 -0.00153184 0)
(0.985478 0.00256853 0)
(0.99255 0.00222511 0)
(0.996976 0.00073122 0)
(0.99841 -0.00398288 0)
(0.998927 -0.00883691 0)
(0.99635 -0.0113683 0)
(0.99443 -0.0127063 0)
(0.991032 -0.0133776 0)
(0.987683 -0.0113094 0)
(0.985011 -0.00922683 0)
(1.00068 -0.00352826 0)
(0.995549 -0.00180676 0)
(0.993156 0.000239584 0)
(1.00316 0.0126454 0)
(1.01597 -0.00690015 0)
(1.00697 -0.0210709 0)
(0.991482 -0.0237523 0)
(0.983262 -0.0169906 0)
(0.980186 -0.00971713 0)
(0.978829 -0.00186579 0)
(0.985852 0.00208465 0)
(0.992661 0.00174394 0)
(0.996839 0.000331024 0)
(0.998067 -0.00404084 0)
(0.998642 -0.00869769 0)
(0.99626 -0.0110236 0)
(0.99442 -0.0121869 0)
(0.991259 -0.0128305 0)
(0.988116 -0.0109488 0)
(0.98545 -0.00881267 0)
(1.00061 -0.00339411 0)
(0.995688 -0.00178361 0)
(0.99346 0.000195639 0)
(1.00292 0.0118176 0)
(1.01521 -0.00660938 0)
(1.00657 -0.0205991 0)
(0.991684 -0.0228439 0)
(0.983796 -0.0166647 0)
(0.980945 -0.00961381 0)
(0.979466 -0.00218176 0)
(0.986216 0.00160522 0)
(0.99275 0.00125831 0)
(0.996691 -6.3862e-05 0)
(0.997703 -0.00409137 0)
(0.998345 -0.0085427 0)
(0.996167 -0.0107035 0)
(0.994408 -0.0116765 0)
(0.991469 -0.0122694 0)
(0.988553 -0.0106198 0)
(0.985896 -0.00843886 0)
(1.00055 -0.00325556 0)
(0.995853 -0.00177061 0)
(0.993784 0.000161207 0)
(1.00265 0.0109895 0)
(1.01447 -0.00631993 0)
(1.00617 -0.020105 0)
(0.991913 -0.0219527 0)
(0.984322 -0.0163241 0)
(0.981693 -0.00952888 0)
(0.980082 -0.00248161 0)
(0.986555 0.00112989 0)
(0.992815 0.000779202 0)
(0.996533 -0.0004514 0)
(0.997327 -0.00413598 0)
(0.998038 -0.00837338 0)
(0.996072 -0.0104049 0)
(0.9944 -0.0111854 0)
(0.991658 -0.0117026 0)
(0.988986 -0.0102958 0)
(0.986352 -0.00812421 0)
(1.00049 -0.00311329 0)
(0.99604 -0.00176593 0)
(0.994121 0.000132381 0)
(1.00236 0.0101625 0)
(1.01374 -0.00603816 0)
(1.00579 -0.0195887 0)
(0.992167 -0.0210789 0)
(0.984855 -0.0159645 0)
(0.982418 -0.0094645 0)
(0.980677 -0.00276898 0)
(0.986862 0.000660727 0)
(0.992856 0.000312443 0)
(0.996369 -0.000834426 0)
(0.996944 -0.00417661 0)
(0.997723 -0.00818983 0)
(0.995976 -0.01012 0)
(0.994401 -0.0107234 0)
(0.991825 -0.0111503 0)
(0.989404 -0.00995569 0)
(0.986815 -0.0078653 0)
(1.00043 -0.00296703 0)
(0.99624 -0.00176943 0)
(0.994466 0.000106456 0)
(1.00207 0.00934582 0)
(1.01301 -0.00576741 0)
(1.00543 -0.0190482 0)
(0.992443 -0.0202264 0)
(0.985401 -0.0155823 0)
(0.983122 -0.00941899 0)
(0.981257 -0.00304433 0)
(0.987139 0.000205861 0)
(0.992879 -0.000149914 0)
(0.996204 -0.00121295 0)
(0.996562 -0.00421176 0)
(0.997402 -0.00799289 0)
(0.995877 -0.00983886 0)
(0.994413 -0.0102998 0)
(0.991975 -0.0106161 0)
(0.989802 -0.00960526 0)
(0.987282 -0.00764676 0)
(1.00035 -0.00281882 0)
(0.99644 -0.00177801 0)
(0.99481 8.37349e-05 0)
(1.0018 0.00854403 0)
(1.01228 -0.00550789 0)
(1.00508 -0.0184834 0)
(0.992734 -0.019397 0)
(0.985964 -0.0151807 0)
(0.983812 -0.00938404 0)
(0.98183 -0.00331256 0)
(0.987395 -0.000237951 0)
(0.992892 -0.000601978 0)
(0.996044 -0.00158578 0)
(0.996187 -0.0042473 0)
(0.997078 -0.00778488 0)
(0.995776 -0.00955484 0)
(0.994436 -0.00989892 0)
(0.992112 -0.0101056 0)
(0.990174 -0.00924627 0)
(0.987751 -0.00744595 0)
(1.00029 -0.00266897 0)
(0.996633 -0.00179323 0)
(0.995147 6.11435e-05 0)
(1.00155 0.00775757 0)
(1.01153 -0.00526326 0)
(1.00474 -0.017897 0)
(0.993034 -0.0185944 0)
(0.986542 -0.0147582 0)
(0.984498 -0.00935903 0)
(0.982407 -0.00357137 0)
(0.987643 -0.000658008 0)
(0.992903 -0.00103472 0)
(0.995897 -0.00195188 0)
(0.995828 -0.00428255 0)
(0.996756 -0.00756146 0)
(0.995676 -0.00927522 0)
(0.994469 -0.00950889 0)
(0.99224 -0.00961648 0)
(0.99052 -0.00888449 0)
(0.988214 -0.00725353 0)
(1.00022 -0.00251676 0)
(0.996815 -0.0018135 0)
(0.995474 3.29656e-05 0)
(1.00134 0.00699659 0)
(1.01077 -0.00503587 0)
(1.0044 -0.0172942 0)
(0.993339 -0.0178213 0)
(0.987127 -0.014315 0)
(0.985187 -0.00933317 0)
(0.982997 -0.00382375 0)
(0.987893 -0.0010499 0)
(0.992921 -0.00144892 0)
(0.995769 -0.00230647 0)
(0.995495 -0.00432165 0)
(0.996438 -0.00732883 0)
(0.995578 -0.00899786 0)
(0.994517 -0.00914486 0)
(0.992363 -0.0091447 0)
(0.990837 -0.00852287 0)
(0.988667 -0.00706989 0)
(1.00017 -0.0023646 0)
(0.996985 -0.00183166 0)
(0.995791 3.45758e-07 0)
(1.00114 0.00626165 0)
(1.01001 -0.00482589 0)
(1.00406 -0.016672 0)
(0.993646 -0.0170749 0)
(0.987714 -0.0138574 0)
(0.98588 -0.00930026 0)
(0.983601 -0.00408153 0)
(0.988151 -0.00142929 0)
(0.992948 -0.00184312 0)
(0.995664 -0.00265214 0)
(0.995192 -0.00437138 0)
(0.996128 -0.00709147 0)
(0.995482 -0.00871909 0)
(0.994578 -0.0088037 0)
(0.992487 -0.00870312 0)
(0.991127 -0.0081579 0)
(0.989103 -0.00688459 0)
(1.00012 -0.00221128 0)
(0.997148 -0.00185118 0)
(0.996099 -3.39074e-05 0)
(1.00097 0.005548 0)
(1.00924 -0.00463346 0)
(1.00372 -0.016033 0)
(0.993953 -0.0163574 0)
(0.988294 -0.0133899 0)
(0.986573 -0.00926101 0)
(0.984218 -0.00434033 0)
(0.988421 -0.00179402 0)
(0.992985 -0.0022138 0)
(0.995583 -0.00297739 0)
(0.994925 -0.00442313 0)
(0.995829 -0.00685571 0)
(0.995388 -0.00843556 0)
(0.994652 -0.00848232 0)
(0.992616 -0.0082898 0)
(0.991394 -0.00779719 0)
(0.989516 -0.006688 0)
(1.00008 -0.0020584 0)
(0.997307 -0.00186875 0)
(0.996398 -7.21707e-05 0)
(1.00082 0.00486181 0)
(1.00849 -0.00445802 0)
(1.00338 -0.015384 0)
(0.994262 -0.0156757 0)
(0.988864 -0.0129185 0)
(0.987263 -0.00920561 0)
(0.984845 -0.00459243 0)
(0.988701 -0.00214608 0)
(0.993031 -0.00255856 0)
(0.995524 -0.00327811 0)
(0.994693 -0.00447564 0)
(0.995545 -0.00662522 0)
(0.995295 -0.00814266 0)
(0.994739 -0.0081825 0)
(0.992754 -0.00789637 0)
(0.99164 -0.00744502 0)
(0.989904 -0.0064818 0)
(1.00005 -0.00190781 0)
(0.997465 -0.0018838 0)
(0.996689 -0.000114694 0)
(1.00068 0.00421076 0)
(1.00775 -0.00429968 0)
(1.00304 -0.0147266 0)
(0.994571 -0.015029 0)
(0.989422 -0.0124518 0)
(0.987942 -0.0091298 0)
(0.985476 -0.00483086 0)
(0.98899 -0.00247954 0)
(0.993084 -0.002884 0)
(0.995487 -0.00356429 0)
(0.994497 -0.00452961 0)
(0.995277 -0.00639238 0)
(0.995202 -0.00784817 0)
(0.994835 -0.00789647 0)
(0.992903 -0.00752904 0)
(0.991869 -0.00710381 0)
(0.990264 -0.00626448 0)
(1.00001 -0.00175796 0)
(0.997624 -0.00189794 0)
(0.996972 -0.000157951 0)
(1.00056 0.00358337 0)
(1.00702 -0.00416098 0)
(1.0027 -0.0140577 0)
(0.99488 -0.0144105 0)
(0.989969 -0.0119974 0)
(0.988609 -0.00903737 0)
(0.986108 -0.00505594 0)
(0.989286 -0.00279355 0)
(0.993143 -0.00319077 0)
(0.99547 -0.0038385 0)
(0.99434 -0.00458366 0)
(0.995028 -0.00615946 0)
(0.995105 -0.00754969 0)
(0.994939 -0.00762612 0)
(0.993062 -0.00718999 0)
(0.992085 -0.00677378 0)
(0.990601 -0.0060514 0)
(0.999979 -0.00161253 0)
(0.997784 -0.00190575 0)
(0.997245 -0.000205482 0)
(1.00044 0.00298555 0)
(1.00633 -0.00403988 0)
(1.00237 -0.013376 0)
(0.995189 -0.0138133 0)
(0.990505 -0.0115574 0)
(0.989259 -0.00892738 0)
(0.986737 -0.00526933 0)
(0.989587 -0.00309091 0)
(0.993204 -0.0034752 0)
(0.995474 -0.00410076 0)
(0.994225 -0.00464503 0)
(0.994802 -0.005933 0)
(0.995004 -0.00724808 0)
(0.995046 -0.00737238 0)
(0.993235 -0.00687726 0)
(0.992288 -0.00643672 0)
(0.990916 -0.00584474 0)
(0.999948 -0.00147106 0)
(0.997945 -0.00190908 0)
(0.997509 -0.000260895 0)
(1.00033 0.00242911 0)
(1.00566 -0.00394809 0)
(1.00205 -0.0126866 0)
(0.995494 -0.0132296 0)
(0.99103 -0.011139 0)
(0.989892 -0.00880365 0)
(0.98736 -0.00546284 0)
(0.989893 -0.00336723 0)
(0.993266 -0.00372817 0)
(0.995496 -0.00434818 0)
(0.994154 -0.00471382 0)
(0.994604 -0.00571423 0)
(0.994898 -0.00694194 0)
(0.995154 -0.00713165 0)
(0.993427 -0.00660417 0)
(0.992482 -0.00609824 0)
(0.991205 -0.00562318 0)
(0.99992 -0.00133626 0)
(0.998106 -0.00190498 0)
(0.997764 -0.000325723 0)
(1.00023 0.00191358 0)
(1.00503 -0.00388492 0)
(1.00174 -0.0120025 0)
(0.995792 -0.0126518 0)
(0.991544 -0.0107474 0)
(0.990508 -0.0086758 0)
(0.987979 -0.00563261 0)
(0.990205 -0.0036119 0)
(0.993329 -0.00394747 0)
(0.995534 -0.00457927 0)
(0.994129 -0.00479156 0)
(0.994439 -0.00550457 0)
(0.994787 -0.00662516 0)
(0.995256 -0.00689405 0)
(0.993641 -0.00637266 0)
(0.992678 -0.00578083 0)
(0.991466 -0.00538083 0)
(0.999893 -0.00120949 0)
(0.998266 -0.00188896 0)
(0.99801 -0.000408873 0)
(1.00014 0.0014481 0)
(1.00443 -0.00383724 0)
(1.00144 -0.0113442 0)
(0.996083 -0.0120718 0)
(0.992045 -0.0103695 0)
(0.991107 -0.00854672 0)
(0.988594 -0.0057839 0)
(0.990524 -0.00383035 0)
(0.993389 -0.00413502 0)
(0.995584 -0.00479316 0)
(0.994152 -0.00489095 0)
(0.994315 -0.00531786 0)
(0.994673 -0.00630249 0)
(0.995345 -0.00665426 0)
(0.993874 -0.00618324 0)
(0.992888 -0.00549486 0)
(0.991703 -0.00512305 0)
(0.999869 -0.00108952 0)
(0.998423 -0.00186454 0)
(0.998247 -0.000508308 0)
(1.00005 0.00104194 0)
(1.00387 -0.0038059 0)
(1.00116 -0.0107197 0)
(0.996366 -0.0114962 0)
(0.992532 -0.00999354 0)
(0.991688 -0.00841259 0)
(0.989208 -0.00592233 0)
(0.990854 -0.00402612 0)
(0.99345 -0.0042852 0)
(0.995641 -0.0049779 0)
(0.994223 -0.00500325 0)
(0.994242 -0.00516351 0)
(0.994562 -0.00598995 0)
(0.995413 -0.00640308 0)
(0.994123 -0.0060325 0)
(0.993122 -0.00525615 0)
(0.991923 -0.00485734 0)
(0.999846 -0.000982543 0)
(0.998575 -0.00182162 0)
(0.998478 -0.000625351 0)
(0.999981 0.000685681 0)
(1.00333 -0.00377168 0)
(1.0009 -0.010133 0)
(0.996642 -0.0109289 0)
(0.993003 -0.00961705 0)
(0.992249 -0.0082744 0)
(0.989819 -0.00604998 0)
(0.991201 -0.00419845 0)
(0.993514 -0.00439556 0)
(0.995701 -0.00511561 0)
(0.994337 -0.0051113 0)
(0.994221 -0.00504678 0)
(0.994464 -0.00569624 0)
(0.995456 -0.00613491 0)
(0.994376 -0.00588963 0)
(0.993394 -0.00507461 0)
(0.992139 -0.0045888 0)
(0.999825 -0.000886797 0)
(0.998721 -0.00175826 0)
(0.998701 -0.000765438 0)
(0.999919 0.000363378 0)
(1.00283 -0.00372006 0)
(1.00066 -0.00959696 0)
(0.996912 -0.0103861 0)
(0.993457 -0.00923424 0)
(0.992787 -0.00812429 0)
(0.990427 -0.00616244 0)
(0.991568 -0.00435294 0)
(0.993588 -0.00446671 0)
(0.995762 -0.00520451 0)
(0.994486 -0.00521333 0)
(0.994257 -0.00497339 0)
(0.994387 -0.00543668 0)
(0.995477 -0.00585806 0)
(0.99462 -0.00573663 0)
(0.993704 -0.00495291 0)
(0.992369 -0.00434548 0)
(0.999807 -0.000804354 0)
(0.998857 -0.0016768 0)
(0.998914 -0.000913964 0)
(0.999871 7.37531e-05 0)
(1.00236 -0.00363772 0)
(1.00043 -0.00910234 0)
(0.997181 -0.00988147 0)
(0.993897 -0.00884445 0)
(0.993299 -0.00794254 0)
(0.99103 -0.00625081 0)
(0.991956 -0.00449986 0)
(0.993675 -0.00450539 0)
(0.995821 -0.00524012 0)
(0.99466 -0.00530245 0)
(0.994347 -0.00493791 0)
(0.994344 -0.00522709 0)
(0.995484 -0.00559755 0)
(0.99484 -0.00557364 0)
(0.994045 -0.00488075 0)
(0.992638 -0.00416964 0)
(0.99979 -0.000735333 0)
(0.998984 -0.0015791 0)
(0.999115 -0.00106147 0)
(0.999838 -0.000200668 0)
(1.00192 -0.00351491 0)
(1.00022 -0.00862088 0)
(0.997449 -0.00941524 0)
(0.994326 -0.00845076 0)
(0.993786 -0.00771854 0)
(0.991621 -0.00630746 0)
(0.992366 -0.00465211 0)
(0.993784 -0.00454005 0)
(0.995876 -0.00522901 0)
(0.99485 -0.0053631 0)
(0.994486 -0.00492947 0)
(0.99434 -0.00505539 0)
(0.995489 -0.00535858 0)
(0.995034 -0.00539062 0)
(0.994398 -0.00481896 0)
(0.992962 -0.00407789 0)
(0.999775 -0.000676765 0)
(0.999099 -0.00147367 0)
(0.999302 -0.0011992 0)
(0.999823 -0.000484265 0)
(1.00151 -0.00335819 0)
(1.00002 -0.0081301 0)
(0.997717 -0.0089927 0)
(0.99475 -0.00807147 0)
(0.994245 -0.00744856 0)
(0.992192 -0.00632081 0)
(0.992792 -0.00480678 0)
(0.993919 -0.00458377 0)
(0.995932 -0.00518783 0)
(0.995046 -0.00538855 0)
(0.99467 -0.00494177 0)
(0.994382 -0.00492278 0)
(0.995504 -0.00514202 0)
(0.995203 -0.00520243 0)
(0.994738 -0.0047396 0)
(0.993339 -0.00405184 0)
(0.999762 -0.000630299 0)
(0.999203 -0.00136303 0)
(0.99947 -0.00131791 0)
(0.999828 -0.000777761 0)
(1.00114 -0.00318194 0)
(0.999815 -0.00762398 0)
(0.997978 -0.00859658 0)
(0.995176 -0.00772665 0)
(0.99468 -0.00714218 0)
(0.992733 -0.00628297 0)
(0.993228 -0.00495214 0)
(0.994085 -0.00464356 0)
(0.995995 -0.00513501 0)
(0.995242 -0.00538539 0)
(0.994887 -0.00495762 0)
(0.994473 -0.00482248 0)
(0.995538 -0.00495305 0)
(0.99536 -0.00502764 0)
(0.995054 -0.00463935 0)
(0.993748 -0.00405229 0)
(0.99975 -0.000593766 0)
(0.999295 -0.00124841 0)
(0.999614 -0.00141547 0)
(0.999853 -0.00107665 0)
(1.0008 -0.00301552 0)
(0.999614 -0.0071024 0)
(0.998227 -0.00821412 0)
(0.995606 -0.00741999 0)
(0.995097 -0.00682015 0)
(0.993238 -0.00617625 0)
(0.993662 -0.00506058 0)
(0.994282 -0.00472432 0)
(0.99607 -0.00509411 0)
(0.995437 -0.00536581 0)
(0.995132 -0.00496866 0)
(0.994611 -0.00474404 0)
(0.995595 -0.00478813 0)
(0.995512 -0.00486638 0)
(0.995346 -0.00452671 0)
(0.994156 -0.0040356 0)
(0.99974 -0.000563632 0)
(0.999375 -0.00114487 0)
(0.999732 -0.00148097 0)
(0.999895 -0.00136761 0)
(1.00052 -0.00287287 0)
(0.999412 -0.00655092 0)
(0.998453 -0.00782557 0)
(0.996041 -0.00717335 0)
(0.995508 -0.00652876 0)
(0.993708 -0.00601654 0)
(0.994081 -0.00511952 0)
(0.994502 -0.00479771 0)
(0.996164 -0.00505755 0)
(0.995632 -0.00531654 0)
(0.995398 -0.00496034 0)
(0.99479 -0.00467302 0)
(0.995678 -0.00463449 0)
(0.995665 -0.00471271 0)
(0.995624 -0.00441826 0)
(0.994544 -0.00398985 0)
(0.999729 -0.000535535 0)
(0.999446 -0.00105569 0)
(0.999822 -0.00152041 0)
(0.99995 -0.00164644 0)
(1.00028 -0.00276937 0)
(0.999213 -0.00598283 0)
(0.99864 -0.00738687 0)
(0.996469 -0.00695741 0)
(0.995921 -0.00627301 0)
(0.99415 -0.00582607 0)
(0.994479 -0.00512563 0)
(0.99474 -0.00485942 0)
(0.99628 -0.00503776 0)
(0.99583 -0.00526594 0)
(0.995677 -0.00494751 0)
(0.995008 -0.00461825 0)
(0.995784 -0.00449571 0)
(0.995814 -0.00456191 0)
(0.99589 -0.00432358 0)
(0.994906 -0.00392463 0)
(0.999719 -0.000510773 0)
(0.999508 -0.00097947 0)
(0.999882 -0.00151833 0)
(1.00001 -0.00190523 0)
(1.00011 -0.00272371 0)
(0.999029 -0.00545492 0)
(0.998785 -0.0069199 0)
(0.996878 -0.00675438 0)
(0.996338 -0.00605501 0)
(0.994569 -0.0056036 0)
(0.994846 -0.00503835 0)
(0.994979 -0.0048649 0)
(0.996412 -0.00500063 0)
(0.996032 -0.00520723 0)
(0.995967 -0.0049282 0)
(0.995263 -0.00458046 0)
(0.995922 -0.00438356 0)
(0.99596 -0.00441519 0)
(0.99615 -0.00424345 0)
(0.995252 -0.0038685 0)
(0.999707 -0.000480798 0)
(0.999567 -0.000941723 0)
(0.999914 -0.00147359 0)
(1.00007 -0.0021201 0)
(0.99998 -0.00270522 0)
(0.998868 -0.0049454 0)
(0.998886 -0.00642324 0)
(0.99726 -0.00654738 0)
(0.996768 -0.00593087 0)
(0.994988 -0.00542077 0)
(0.995189 -0.00491683 0)
(0.995207 -0.00482391 0)
(0.996551 -0.0049481 0)
(0.996231 -0.00513157 0)
(0.996258 -0.00489111 0)
(0.995542 -0.00453545 0)
(0.996092 -0.00427816 0)
(0.996101 -0.00425423 0)
(0.996388 -0.00414245 0)
(0.995584 -0.00381187 0)
(0.999694 -0.00043945 0)
(0.999622 -0.000920755 0)
(0.999925 -0.00140848 0)
(1.00012 -0.0023103 0)
(0.999913 -0.00273566 0)
(0.998738 -0.00448856 0)
(0.998938 -0.00587856 0)
(0.997581 -0.00626011 0)
(0.99719 -0.00581661 0)
(0.995417 -0.00527099 0)
(0.995521 -0.00477289 0)
(0.995424 -0.00473221 0)
(0.996694 -0.00488862 0)
(0.996433 -0.00506671 0)
(0.996553 -0.00486682 0)
(0.995849 -0.00451827 0)
(0.996303 -0.00422025 0)
(0.996252 -0.00412845 0)
(0.996603 -0.00404196 0)
(0.995906 -0.0037777 0)
(0.999681 -0.00041547 0)
(0.999677 -0.000902012 0)
(0.999912 -0.00130894 0)
(1.00016 -0.00242107 0)
(0.999896 -0.00277023 0)
(0.99866 -0.00409023 0)
(0.998972 -0.00534359 0)
(0.997848 -0.00594362 0)
(0.99759 -0.00570639 0)
(0.995855 -0.0051943 0)
(0.995851 -0.00463844 0)
(0.995618 -0.00458973 0)
(0.996814 -0.00476993 0)
(0.996617 -0.00496601 0)
(0.996835 -0.0048091 0)
(0.996162 -0.00448298 0)
(0.996542 -0.00416145 0)
(0.996422 -0.0040099 0)
(0.996793 -0.00391363 0)
(0.996203 -0.00372384 0)
(0.999668 -0.000351176 0)
(0.999739 -0.000980845 0)
(0.99989 -0.00126366 0)
(1.00018 -0.0024979 0)
(0.999923 -0.00281876 0)
(0.998629 -0.00372504 0)
(0.998978 -0.00480957 0)
(0.99805 -0.00556035 0)
(0.99795 -0.00553787 0)
(0.996305 -0.0051462 0)
(0.996212 -0.00454842 0)
(0.995825 -0.00444789 0)
(0.99693 -0.00462013 0)
(0.996789 -0.004853 0)
(0.997109 -0.00475628 0)
(0.996485 -0.00446368 0)
(0.996811 -0.00413186 0)
(0.996619 -0.00393457 0)
(0.99697 -0.00380571 0)
(0.996469 -0.00366511 0)
(0.999652 -0.000296475 0)
(0.999791 -0.00102467 0)
(0.999873 -0.00119589 0)
(1.0002 -0.0024652 0)
(0.999997 -0.00288013 0)
(0.998662 -0.00347225 0)
(0.998985 -0.00434145 0)
(0.998199 -0.00517407 0)
(0.998248 -0.00533843 0)
(0.996727 -0.00509612 0)
(0.996583 -0.00451412 0)
(0.996039 -0.00431704 0)
(0.997028 -0.00444378 0)
(0.996925 -0.00468594 0)
(0.997356 -0.00466635 0)
(0.996805 -0.0044251 0)
(0.997103 -0.00410136 0)
(0.996853 -0.00387316 0)
(0.997159 -0.00370623 0)
(0.996712 -0.00358193 0)
(0.99964 -0.000253765 0)
(0.999856 -0.00100956 0)
(0.999862 -0.0010785 0)
(1.00019 -0.00232694 0)
(1.00007 -0.00291188 0)
(0.99874 -0.00334078 0)
(0.998996 -0.00394783 0)
(0.998301 -0.00479064 0)
(0.998495 -0.00509557 0)
(0.997127 -0.00500593 0)
(0.996982 -0.00450635 0)
(0.996299 -0.00422282 0)
(0.997147 -0.00428009 0)
(0.997043 -0.00449931 0)
(0.997564 -0.00454776 0)
(0.997104 -0.00438261 0)
(0.997398 -0.00408453 0)
(0.997103 -0.00384078 0)
(0.997354 -0.00364086 0)
(0.996921 -0.00350502 0)
(0.999628 -0.000183815 0)
(0.999918 -0.00102974 0)
(0.999858 -0.00101566 0)
(1.00015 -0.00219125 0)
(1.00014 -0.00288069 0)
(0.998873 -0.00326879 0)
(0.99905 -0.00362962 0)
(0.998382 -0.00442081 0)
(0.998685 -0.00481997 0)
(0.997465 -0.00487632 0)
(0.997357 -0.00449602 0)
(0.996571 -0.00417663 0)
(0.997267 -0.00413455 0)
(0.997135 -0.00431244 0)
(0.99772 -0.00438879 0)
(0.997364 -0.00430487 0)
(0.997686 -0.00405916 0)
(0.997372 -0.00381422 0)
(0.997575 -0.00359877 0)
(0.997129 -0.003438 0)
(0.999616 -0.000135009 0)
(0.999979 -0.000998042 0)
(0.999872 -0.000961932 0)
(1.00012 -0.00203139 0)
(1.00018 -0.00277529 0)
(0.999016 -0.00321147 0)
(0.999119 -0.00339564 0)