/*--------------------------------*- C++ -*----------------------------------*\
| =========                 |                                                 |
| \\      /  F ield         | OpenFOAM: The Open Source CFD Toolbox           |
|  \\    /   O peration     | Version:  2506                                  |
|   \\  /    A nd           | Website:  www.openfoam.com                      |
|    \\/     M anipulation  |                                                 |
\*---------------------------------------------------------------------------*/
FoamFile
{
    version     2.0;
    format      ascii;
    arch        "LSB;label=32;scalar=64";
    class       surfaceScalarField;
    location    "7.55";
    object      phi;
}
// * * * * * * * * * * * * * * * * * * * * * * * * * * * * * * * * * * * * * //

dimensions      [0 3 -1 0 0 0 0];

oriented        oriented;

internalField   nonuniform List<scalar> 
19000
(
1.12928e-06
-1.5285e-07
1.16294e-06
6.86276e-07
1.19834e-06
-1.64191e-06
1.263e-06
-6.31745e-07
1.22503e-06
4.87734e-07
1.22022e-06
1.48698e-06
1.19313e-06
2.96372e-07
1.16142e-06
-1.40367e-07
1.13455e-06
-1.14422e-06
1.12152e-06
-1.5753e-06
1.15893e-06
-1.33356e-06
1.175e-06
-1.74361e-06
1.22575e-06
-3.7321e-07
1.19842e-06
-7.14061e-07
1.22027e-06
4.63628e-07
1.16962e-06
2.30767e-08
1.19125e-06
7.14252e-07
1.14884e-06
1.3722e-07
1.16737e-06
4.60028e-07
7.91006e-08
1.12118e-06
1.18338e-06
-1.11966e-07
1.21985e-06
6.49802e-07
1.25702e-06
-1.67908e-06
1.32248e-06
-6.97209e-07
1.28163e-06
5.28587e-07
1.2861e-06
1.48251e-06
1.25558e-06
3.26888e-07
1.22945e-06
-1.14232e-07
1.19277e-06
-1.10755e-06
1.17204e-06
-1.55457e-06
1.19686e-06
-1.35838e-06
1.21264e-06
-1.75938e-06
1.26721e-06
-4.27785e-07
1.25389e-06
-7.0074e-07
1.26272e-06
4.548e-07
1.23546e-06
5.0336e-08
1.22982e-06
7.1989e-07
1.22306e-06
1.43983e-07
1.20974e-06
4.73347e-07
7.14863e-08
1.21735e-06
1.23992e-06
-6.91008e-08
1.27121e-06
6.18515e-07
1.30712e-06
-1.71499e-06
1.37819e-06
-7.6828e-07
1.3474e-06
5.59375e-07
1.35194e-06
1.47797e-06
1.32356e-06
3.55269e-07
1.29497e-06
-8.56388e-08
1.25688e-06
-1.06945e-06
1.23482e-06
-1.53251e-06
1.24601e-06
-1.36958e-06
1.26196e-06
-1.77533e-06
1.31302e-06
-4.78848e-07
1.31153e-06
-6.99248e-07
1.31973e-06
4.46601e-07
1.30284e-06
6.72219e-08
1.30147e-06
7.21259e-07
1.3005e-06
1.44955e-07
1.30801e-06
4.65832e-07
7.42199e-08
1.30528e-06
1.30102e-06
-2.60224e-08
1.32141e-06
5.98134e-07
1.35142e-06
-1.74501e-06
1.42791e-06
-8.44769e-07
1.4197e-06
5.67584e-07
1.42167e-06
1.476e-06
1.39492e-06
3.82016e-07
1.36533e-06
-5.60476e-08
1.32706e-06
-1.03118e-06
1.30122e-06
-1.50667e-06
1.3011e-06
-1.36945e-06
1.31362e-06
-1.78785e-06
1.35994e-06
-5.25164e-07
1.36771e-06
-7.07017e-07
1.38189e-06
4.3242e-07
1.3721e-06
7.70136e-08
1.38147e-06
7.11888e-07
1.38092e-06
1.45496e-07
1.40122e-06
4.45532e-07
8.38003e-08
1.39164e-06
1.36923e-06
1.31048e-08
1.37628e-06
5.91077e-07
1.39678e-06
-1.76551e-06
1.47373e-06
-9.21719e-07
1.49292e-06
5.48398e-07
1.49509e-06
1.47383e-06
1.46849e-06
4.08612e-07
1.439e-06
-2.65566e-08
1.40124e-06
-9.93415e-07
1.37214e-06
-1.47757e-06
1.36392e-06
-1.36122e-06
1.36895e-06
-1.79289e-06
1.40864e-06
-5.64855e-07
1.42153e-06
-7.19908e-07
1.44363e-06
4.10327e-07
1.44093e-06
7.9714e-08
1.46138e-06
6.91434e-07
1.46214e-06
1.4473e-07
1.48943e-06
4.18251e-07
9.60904e-08
1.47714e-06
1.44523e-06
4.35475e-08
1.44067e-06
5.95641e-07
1.44951e-06
-1.77434e-06
1.52019e-06
-9.92405e-07
1.56223e-06
5.0636e-07
1.56893e-06
1.46713e-06
1.54302e-06
4.3452e-07
1.5153e-06
1.1632e-09
1.47782e-06
-9.55932e-07
1.44612e-06
-1.44587e-06
1.43216e-06
-1.34727e-06
1.42873e-06
-1.78946e-06
1.4616e-06
-5.97719e-07
1.47618e-06
-7.3449e-07
1.50562e-06
3.80884e-07
1.51036e-06
7.49731e-08
1.54173e-06
6.60072e-07
1.54466e-06
1.41794e-07
1.57724e-06
3.8567e-07
1.09867e-07
1.56347e-06
1.52729e-06
6.2473e-08
1.51584e-06
6.07091e-07
1.51213e-06
-1.77063e-06
1.57088e-06
-1.05116e-06
1.62668e-06
4.50556e-07
1.64081e-06
1.453e-06
1.61782e-06
4.57511e-07
1.59368e-06
2.53007e-08
1.55656e-06
-9.18811e-07
1.52303e-06
-1.41234e-06
1.50453e-06
-1.32877e-06
1.49377e-06
-1.7787e-06
1.521e-06
-6.24952e-07
1.53534e-06
-7.48823e-07
1.5713e-06
3.44917e-07
1.58307e-06
6.32068e-08
1.62489e-06
6.18254e-07
1.62984e-06
1.36841e-07
1.6662e-06
3.49313e-07
1.24985e-07
1.65108e-06
1.6125e-06
7.01008e-08
1.59967e-06
6.19921e-07
1.58372e-06
-1.75468e-06
1.62721e-06
-1.09464e-06
1.68817e-06
3.89596e-07
1.7106e-06
1.43057e-06
1.6929e-06
4.75206e-07
1.67397e-06
4.42278e-08
1.63752e-06
-8.82356e-07
1.60294e-06
-1.37776e-06
1.58019e-06
-1.30603e-06
1.56394e-06
-1.76245e-06
1.58779e-06
-6.48808e-07
1.60149e-06
-7.6252e-07
1.64369e-06
3.02719e-07
1.66135e-06
4.55467e-08
1.71222e-06
5.67386e-07
1.71799e-06
1.31069e-07
1.75574e-06
3.11563e-07
1.41734e-07
1.73899e-06
1.6987e-06
6.89798e-08
1.68868e-06
6.29936e-07
1.66205e-06
-1.72805e-06
1.68934e-06
-1.12193e-06
1.74949e-06
3.29447e-07
1.77983e-06
1.40022e-06
1.76891e-06
4.86135e-07
1.75615e-06
5.69848e-08
1.72084e-06
-8.47047e-07
1.68618e-06
-1.3431e-06
1.65903e-06
-1.27888e-06
1.63877e-06
-1.74218e-06
1.66156e-06
-6.71598e-07
1.67529e-06
-7.76252e-07
1.72401e-06
2.54e-07
1.74592e-06
2.36368e-08
1.80339e-06
5.0991e-07
1.80798e-06
1.26483e-07
1.84416e-06
2.75384e-07
1.60443e-07
1.82545e-06
1.78532e-06
6.23767e-08
1.78009e-06
6.35166e-07
1.74526e-06
-1.69321e-06
1.75743e-06
-1.1341e-06
1.81339e-06
2.73487e-07
1.85074e-06
1.36288e-06
1.84679e-06
4.90082e-07
1.84015e-06
6.36188e-08
1.80647e-06
-8.13362e-07
1.77296e-06
-1.30959e-06
1.74158e-06
-1.24749e-06
1.718e-06
-1.71861e-06
1.74083e-06
-6.94425e-07
1.75525e-06
-7.90672e-07
1.81081e-06
1.98444e-07
1.83497e-06
-5.22657e-10
1.8959e-06
4.4898e-07
1.89715e-06
1.25227e-07
1.92885e-06
2.43686e-07
1.8098e-07
1.90831e-06
1.8731e-06
5.30296e-08
1.87274e-06
6.35525e-07
1.83256e-06
-1.65303e-06
1.83225e-06
-1.13379e-06
1.8825e-06
2.23239e-07
1.92549e-06
1.31989e-06
1.92751e-06
4.88062e-07
1.92602e-06
6.51072e-08
1.89433e-06
-7.81669e-07
1.86313e-06
-1.27839e-06
1.82867e-06
-1.21304e-06
1.80182e-06
-1.69176e-06
1.82393e-06
-7.16527e-07
1.83837e-06
-8.05114e-07
1.89992e-06
1.36891e-07
1.92405e-06
-2.46545e-08
1.98516e-06
3.87872e-07
1.98176e-06
1.2863e-07
2.00699e-06
2.18451e-07
2.02294e-07
1.98568e-06
1.96311e-06
4.27546e-08
1.96679e-06
6.31851e-07
1.92396e-06
-1.6102e-06
1.91469e-06
-1.12452e-06
1.95881e-06
1.79114e-07
2.00561e-06
1.27309e-06
2.01175e-06
4.81922e-07
2.01398e-06
6.28724e-08
1.98452e-06
-7.52211e-07
1.95629e-06
-1.25016e-06
1.92093e-06
-1.17768e-06
1.89053e-06
-1.66135e-06
1.90989e-06
-7.35896e-07
1.92184e-06
-8.17063e-07
1.98646e-06
7.22754e-08
2.00813e-06
-4.63292e-08
2.06655e-06
3.29454e-07
2.05875e-06
1.36433e-07
2.07705e-06
2.00148e-07
2.22345e-07
2.057e-06
2.05632e-06
3.26231e-08
2.06307e-06
6.25098e-07
2.01975e-06
-1.56688e-06
2.00492e-06
-1.10969e-06
2.04297e-06
1.41063e-07
2.09152e-06
1.22455e-06
2.09988e-06
4.73562e-07
2.10461e-06
5.81412e-08
2.07752e-06
-7.2512e-07
2.05222e-06
-1.22487e-06
2.01836e-06
-1.14381e-06
1.98421e-06
-1.6272e-06
1.99897e-06
-7.5066e-07
2.00494e-06
-8.23036e-07
2.06801e-06
9.20562e-09
2.08499e-06
-6.33083e-08
2.13861e-06
2.75838e-07
2.12818e-06
1.46864e-07
2.14044e-06
1.87883e-07
2.3864e-07
2.12415e-06
2.15339e-06
2.32385e-08
2.16252e-06
6.15968e-07
2.12011e-06
-1.52448e-06
2.10217e-06
-1.09175e-06
2.13421e-06
1.09025e-07
2.18282e-06
1.17594e-06
2.19218e-06
4.64203e-07
2.19877e-06
5.15445e-08
2.17405e-06
-7.00399e-07
2.1511e-06
-1.20192e-06
2.1204e-06
-1.11311e-06
2.08269e-06
-1.58949e-06
2.09218e-06
-7.60148e-07
2.08945e-06
-8.20301e-07
2.14644e-06
-4.77843e-08
2.15722e-06
-7.40923e-08
2.20477e-06
2.28293e-07
2.1941e-06
1.57527e-07
2.20178e-06
1.80201e-07
2.49115e-07
2.19131e-06
2.25484e-06
1.48907e-08
2.26591e-06
6.04894e-07
2.22503e-06
-1.4836e-06
2.20527e-06
-1.07198e-06
2.23132e-06
8.29796e-08
2.27909e-06
1.12816e-06
2.2891e-06
4.54199e-07
2.29746e-06
4.31783e-08
2.27495e-06
-6.77882e-07
2.25353e-06
-1.1805e-06
2.22648e-06
-1.08606e-06
2.18574e-06
-1.54875e-06
2.19062e-06
-7.65031e-07
2.17846e-06
-8.08138e-07
2.22668e-06
-9.60086e-08
2.23097e-06
-7.83743e-08
2.27195e-06
1.87313e-07
2.26305e-06
1.66424e-07
2.26761e-06
1.7564e-07
2.53113e-07
2.26361e-06
2.36114e-06
7.63008e-09
2.37389e-06
5.92136e-07
2.33447e-06
-1.44418e-06
2.3134e-06
-1.05091e-06
2.33367e-06
6.27088e-08
2.38049e-06
1.08133e-06
2.39129e-06
4.43406e-07
2.4015e-06
3.29647e-08
2.38087e-06
-6.57256e-07
2.36024e-06
-1.15986e-06
2.33637e-06
-1.06219e-06
2.29326e-06
-1.50564e-06
2.29489e-06
-7.66662e-07
2.27458e-06
-7.87831e-07
2.3138e-06
-1.35229e-07
2.3125e-06
-7.70671e-08
2.34701e-06
1.52795e-07
2.34102e-06
1.72416e-07
2.34358e-06
1.7308e-07
2.51479e-07
2.34522e-06
2.47267e-06
1.35242e-09
2.48695e-06
5.77862e-07
2.44849e-06
-1.40572e-06
2.42637e-06
-1.02878e-06
2.44145e-06
4.76292e-08
2.48764e-06
1.03514e-06
2.49939e-06
4.31661e-07
2.5114e-06
2.09576e-08
2.49229e-06
-6.38146e-07
2.47186e-06
-1.13944e-06
2.4503e-06
-1.04063e-06
2.40539e-06
-1.46073e-06
2.40506e-06
-7.66335e-07
2.37894e-06
-7.61711e-07
2.41058e-06
-1.6687e-07
2.40543e-06
-7.19169e-08
2.43398e-06
1.24253e-07
2.43127e-06
1.75121e-07
2.43236e-06
1.71989e-07
2.45733e-07
2.43811e-06
2.58975e-06
-4.10089e-09
2.60542e-06
5.62187e-07
2.56731e-06
-1.36761e-06
2.54446e-06
-1.00593e-06
2.55521e-06
3.6872e-08
2.60119e-06
9.89162e-07
2.61386e-06
4.18983e-07
2.6274e-06
7.42039e-09
2.60947e-06
-6.20213e-07
2.58883e-06
-1.1188e-06
2.56878e-06
-1.02058e-06
2.52246e-06
-1.41441e-06
2.52102e-06
-7.64891e-07
2.49141e-06
-7.32107e-07
2.51732e-06
-1.92778e-07
2.51032e-06
-6.49129e-08
2.53351e-06
1.01055e-07
2.53406e-06
1.74575e-07
2.53401e-06
1.72035e-07
2.37526e-07
2.54222e-06
2.7126e-06
-8.86831e-09
2.72958e-06
5.45201e-07
2.69124e-06
-1.32927e-06
2.66805e-06
-9.82736e-07
2.67542e-06
2.94994e-08
2.72149e-06
9.43091e-07
2.73496e-06
4.05514e-07
2.74963e-06
-7.25084e-09
2.73263e-06
-6.03211e-07
2.71145e-06
-1.09762e-06
2.69235e-06
-1.00149e-06
2.64488e-06
-1.36693e-06
2.64268e-06
-7.62697e-07
2.61138e-06
-7.00803e-07
2.633e-06
-2.14393e-07
2.62586e-06
-5.77738e-08
2.64431e-06
8.25984e-08
2.64788e-06
1.71005e-07
2.64712e-06
1.72797e-07
2.2827e-07
2.65638e-06
2.84144e-06
-1.30408e-08
2.85967e-06
5.26976e-07
2.82065e-06
-1.29026e-06
2.79749e-06
-9.59569e-07
2.80232e-06
2.46675e-08
2.84869e-06
8.96718e-07
2.86282e-06
3.91387e-07
2.87819e-06
-2.26192e-08
2.86197e-06
-5.86998e-07
2.83995e-06
-1.0756e-06
2.82148e-06
-9.83008e-07
2.77306e-06
-1.31852e-06
2.77016e-06
-7.59789e-07
2.73837e-06
-6.69021e-07
2.75649e-06
-2.32513e-07
2.75044e-06
-5.17188e-08
2.76469e-06
6.83477e-08
2.77091e-06
1.6478e-07
2.77003e-06
1.73683e-07
2.18985e-07
2.77931e-06
2.97652e-06
-1.66666e-08
2.99592e-06
5.0758e-07
2.95591e-06
-1.25026e-06
2.93305e-06
-9.36708e-07
2.93605e-06
2.16751e-08
2.98283e-06
8.49937e-07
2.99755e-06
3.76667e-07
3.01318e-06
-3.8253e-08
2.99769e-06
-5.71506e-07
2.97462e-06
-1.05253e-06
2.95651e-06
-9.64901e-07
2.90742e-06
-1.26943e-06
2.90366e-06
-7.5603e-07
2.87223e-06
-6.37592e-07
2.88718e-06
-2.4746e-07
2.88294e-06
-4.74773e-08
2.89354e-06
5.77469e-08
2.90189e-06
1.56433e-07
2.90152e-06
1.74051e-07
2.10278e-07
2.91022e-06
3.11811e-06
-1.97661e-08
3.13861e-06
4.8707e-07
3.0974e-06
-1.20905e-06
3.07503e-06
-9.14334e-07
3.07676e-06
1.99501e-08
3.12396e-06
8.02732e-07
3.13928e-06
3.61347e-07
3.15477e-06
-5.37447e-08
3.13997e-06
-5.56705e-07
3.11572e-06
-1.02827e-06
3.09777e-06
-9.46958e-07
3.04832e-06
-1.21998e-06
3.04351e-06
-7.51221e-07
3.01304e-06
-6.07124e-07
3.02491e-06
-2.59335e-07
3.02283e-06
-4.53971e-08
3.03045e-06
5.01276e-08
3.04022e-06
1.46666e-07
3.04092e-06
1.73352e-07
2.02408e-07
3.04879e-06
3.26649e-06
-2.23445e-08
3.28805e-06
4.65505e-07
3.24553e-06
-1.16652e-06
3.22373e-06
-8.92539e-07
3.22465e-06
1.90297e-08
3.2722e-06
7.55184e-07
3.28818e-06
3.4537e-07
3.30316e-06
-6.87268e-08
3.28903e-06
-5.42581e-07
3.26358e-06
-1.00281e-06
3.24559e-06
-9.28973e-07
3.1961e-06
-1.17049e-06
3.19004e-06
-7.45154e-07
3.16099e-06
-5.78079e-07
3.16985e-06
-2.68189e-07
3.17002e-06
-4.55706e-08
3.17534e-06
4.4809e-08
3.18583e-06
1.3618e-07
3.18794e-06
1.71241e-07
1.95368e-07
3.19498e-06
3.42199e-06
-2.44024e-08
3.44455e-06
4.42942e-07
3.4007e-06
-1.12267e-06
3.3795e-06
-8.71334e-07
3.37997e-06
1.85562e-08
3.42768e-06
7.07469e-07
3.44442e-06
3.28633e-07
3.45859e-06
-8.28941e-08
3.44512e-06
-5.29116e-07
3.41852e-06
-9.7621e-07
3.40029e-06
-9.10739e-07
3.35112e-06
-1.12132e-06
3.3436e-06
-7.37634e-07
3.31632e-06
-5.50803e-07
3.32223e-06
-2.74097e-07
3.32455e-06
-4.78907e-08
3.32824e-06
4.11255e-08
3.33883e-06
1.25583e-07
3.3425e-06
1.67569e-07
1.89002e-07
3.34887e-06
3.58495e-06
-2.59423e-08
3.60845e-06
4.19443e-07
3.56337e-06
-1.07758e-06
3.54268e-06
-8.50652e-07
3.54297e-06
1.82707e-08
3.59059e-06
6.59845e-07
3.60823e-06
3.10993e-07
3.62136e-06
-9.60232e-08
3.60854e-06
-5.16293e-07
3.58091e-06
-9.48579e-07
3.56223e-06
-8.92062e-07
3.51369e-06
-1.07278e-06
3.50456e-06
-7.28506e-07
3.47926e-06
-5.25505e-07
3.48236e-06
-2.77195e-07
3.48656e-06
-5.20883e-08
3.48924e-06
3.8438e-08
3.49948e-06
1.15347e-07
3.50469e-06
1.62359e-07
1.83083e-07
3.51061e-06
3.75574e-06
-2.69742e-08
3.7801e-06
3.95078e-07
3.73397e-06
-1.03145e-06
3.71367e-06
-8.30351e-07
3.71394e-06
1.7996e-08
3.76117e-06
6.12615e-07
3.77987e-06
2.92295e-07
3.79183e-06
-1.07987e-07
3.77963e-06
-5.04088e-07
3.75112e-06
-9.20073e-07
3.73183e-06
-8.7277e-07
3.68414e-06
-1.02509e-06
3.67328e-06
-7.17651e-07
3.65005e-06
-5.0227e-07
3.65053e-06
-2.77673e-07
3.65621e-06
-5.77766e-08
3.65853e-06
3.61271e-08
3.66807e-06
1.05804e-07
3.67464e-06
1.55785e-07
1.77299e-07
3.68043e-06
3.93473e-06
-2.75159e-08
3.95989e-06
3.69922e-07
3.91294e-06
-9.84502e-07
3.89282e-06
-8.10234e-07
3.89322e-06
1.76024e-08
3.93973e-06
5.66106e-07
3.95963e-06
2.72391e-07
3.9704e-06
-1.18754e-07
3.95877e-06
-4.92457e-07
3.92956e-06
-8.90864e-07
3.90952e-06
-8.52728e-07
3.86281e-06
-9.78387e-07
3.85017e-06
-7.05004e-07
3.82896e-06
-4.81058e-07
3.82708e-06
-2.75798e-07
3.83378e-06
-6.44742e-08
3.83628e-06
3.36219e-08
3.84492e-06
9.71669e-08
3.85261e-06
1.48093e-07
1.71328e-07
3.85858e-06
4.12232e-06
-2.75901e-08
4.14818e-06
3.44063e-07
4.10072e-06
-9.37036e-07
4.08055e-06
-7.90067e-07
4.08117e-06
1.69782e-08
4.12665e-06
5.20631e-07
4.14785e-06
2.5119e-07
4.15747e-06
-1.28373e-07
4.14636e-06
-4.81345e-07
4.11663e-06
-8.61135e-07
4.09575e-06
-8.31851e-07
4.05009e-06
-9.32727e-07
4.03563e-06
-6.90541e-07
4.01632e-06
-4.61747e-07
4.0124e-06
-2.71875e-07
4.01958e-06
-7.16614e-08
4.02273e-06
3.04788e-08
4.0304e-06
8.94913e-08
4.03891e-06
1.39586e-07
1.64914e-07
4.04532e-06
4.31893e-06
-2.72225e-08
4.34538e-06
3.17612e-07
4.29771e-06
-8.89365e-07
4.27726e-06
-7.69617e-07
4.27823e-06
1.60169e-08
4.32241e-06
4.76451e-07
4.3449e-06
2.28697e-07
4.35347e-06
-1.36945e-07
4.3428e-06
-4.70677e-07
4.31274e-06
-8.31077e-07
4.29099e-06
-8.10099e-07
4.24639e-06
-8.88124e-07
4.23009e-06
-6.74245e-07
4.21253e-06
-4.44189e-07
4.20689e-06
-2.66227e-07
4.21404e-06
-7.88143e-08
4.21805e-06
2.64646e-08
4.22495e-06
8.25988e-08
4.23386e-06
1.30675e-07
1.57877e-07
4.24089e-06
4.52499e-06
-2.64389e-08
4.55189e-06
2.90713e-07
4.50434e-06
-8.41816e-07
4.4834e-06
-7.48674e-07
4.48481e-06
1.46043e-08
4.52749e-06
4.33767e-07
4.55117e-06
2.05025e-07
4.55883e-06
-1.44604e-07
4.5485e-06
-4.60356e-07
4.51832e-06
-8.00895e-07
4.49569e-06
-7.87463e-07
4.45216e-06
-8.44592e-07
4.43402e-06
-6.56105e-07
4.41804e-06
-4.28217e-07
4.41096e-06
-2.5914e-07
4.41763e-06
-8.54844e-08
4.42261e-06
2.1485e-08
4.42897e-06
7.62348e-08
4.43793e-06
1.21717e-07
1.50212e-07
4.44559e-06
4.74094e-06
-2.52674e-08
4.76811e-06
2.63549e-07
4.72101e-06
-7.94716e-07
4.69941e-06
-7.27073e-07
4.70138e-06
1.26271e-08
4.74242e-06
3.9273e-07
4.76709e-06
1.80359e-07
4.77399e-06
-1.51502e-07
4.76388e-06
-4.5025e-07
4.73378e-06
-7.70799e-07
4.71029e-06
-7.6397e-07
4.66787e-06
-8.02168e-07
4.64794e-06
-6.3618e-07
4.63333e-06
-4.13607e-07
4.6252e-06
-2.51009e-07
4.63091e-06
-9.11975e-08
4.63681e-06
1.55825e-08
4.64293e-06
7.01196e-08
4.65166e-06
1.12982e-07
1.42004e-07
4.65987e-06
4.96727e-06
-2.37383e-08
4.99448e-06
2.3634e-07
4.94813e-06
-7.48368e-07
4.92579e-06
-7.04731e-07
4.92843e-06
9.98778e-09
4.96772e-06
3.53441e-07
4.99313e-06
1.54944e-07
4.99942e-06
-1.5779e-07
4.98937e-06
-4.40203e-07
4.95954e-06
-7.40967e-07
4.93527e-06
-7.39695e-07
4.89401e-06
-7.60913e-07
4.87238e-06
-6.14547e-07
4.85891e-06
-4.0014e-07
4.85018e-06
-2.42274e-07
4.8546e-06
-9.56163e-08
4.8612e-06
8.97899e-09
4.8673e-06
6.40207e-08
4.87573e-06
1.04554e-07
1.33432e-07
4.8843e-06
5.20446e-06
-2.18853e-08
5.23147e-06
2.09329e-07
5.18613e-06
-7.03027e-07
5.16305e-06
-6.81652e-07
5.16644e-06
6.5989e-09
5.20389e-06
3.15989e-07
5.2298e-06
1.29043e-07
5.23562e-06
-1.63613e-07
5.22548e-06
-4.30059e-07
5.19604e-06
-7.11532e-07
5.17111e-06
-7.1476e-07
5.13108e-06
-7.20889e-07
5.1079e-06
-5.91368e-07
5.09533e-06
-3.87572e-07
5.08638e-06
-2.33323e-07
5.08939e-06
-9.86229e-08
5.09635e-06
2.02133e-09
5.10261e-06
5.77586e-08
5.1107e-06
9.64591e-08
1.24657e-07
5.11948e-06
5.45305e-06
-1.97439e-08
5.47961e-06
1.82762e-07
5.43547e-06
-6.58881e-07
5.41175e-06
-6.57932e-07
5.41595e-06
2.39409e-09
5.45148e-06
2.80464e-07
5.47761e-06
1.02908e-07
5.4831e-06
-1.69103e-07
5.47272e-06
-4.19674e-07
5.44375e-06
-6.82565e-07
5.41833e-06
-6.89337e-07
5.37959e-06
-6.82145e-07
5.3551e-06
-5.66877e-07
5.34311e-06
-3.75586e-07
5.33433e-06
-2.24546e-07
5.33595e-06
-1.00244e-07
5.34286e-06
-4.889e-09
5.34942e-06
5.12059e-08
5.35722e-06
8.86586e-08
1.15866e-07
5.36601e-06
5.71357e-06
-1.73539e-08
5.73946e-06
1.56866e-07
5.69662e-06
-6.1604e-07
5.67245e-06
-6.33756e-07
5.6775e-06
-2.65935e-09
5.71101e-06
2.46959e-07
5.73713e-06
7.67804e-08
5.74241e-06
-1.74382e-07
5.73169e-06
-4.08951e-07
5.70319e-06
-6.54072e-07
5.67748e-06
-6.6362e-07
5.64007e-06
-6.4474e-07
5.61453e-06
-5.41337e-07
5.60283e-06
-3.63888e-07
5.59454e-06
-2.16253e-07
5.59493e-06
-1.00629e-07
5.60139e-06
-1.13569e-08
5.60826e-06
4.43361e-08
5.6158e-06
8.11177e-08
1.07146e-07
5.62452e-06
5.9866e-06
-1.47599e-08
6.01163e-06
1.31836e-07
5.97013e-06
-5.74545e-07
5.94572e-06
-6.09346e-07
5.95165e-06
-8.58267e-09
5.98304e-06
2.1557e-07
6.00894e-06
5.08761e-08
6.01412e-06
-1.79562e-07
6.00298e-06
-3.97814e-07
5.97494e-06
-6.26028e-07
5.94909e-06
-6.37774e-07
5.91311e-06
-6.08758e-07
5.8868e-06
-5.15024e-07
5.87512e-06
-3.52211e-07
5.86752e-06
-2.08647e-07
5.86687e-06
-9.99873e-08
5.87261e-06
-1.70875e-08
5.8797e-06
3.72428e-08
5.88709e-06
7.37291e-08
9.8609e-08
5.89562e-06
6.27274e-06
-1.20111e-08
6.29675e-06
1.07828e-07
6.25659e-06
-5.3439e-07
6.23219e-06
-5.84943e-07
6.23898e-06
-1.53756e-08
6.26819e-06
1.86365e-07
6.29362e-06
2.54395e-08
6.29883e-06
-1.84772e-07
6.28725e-06
-3.86233e-07
6.25959e-06
-5.98366e-07
6.23376e-06
-6.11946e-07
6.19931e-06
-5.74304e-07
6.17246e-06
-4.88174e-07
6.16062e-06
-3.4037e-07
6.1538e-06
-2.01829e-07
6.15241e-06
-9.86022e-08
6.15718e-06
-2.18562e-08
6.16429e-06
3.01323e-08
6.17169e-06
6.63343e-08
9.03598e-08
6.17994e-06
6.57262e-06
-9.16659e-09
6.59549e-06
8.4964e-08
6.55668e-06
-4.95578e-07
6.53247e-06
-5.60738e-07
6.54012e-06
-2.3029e-08
6.56714e-06
1.59348e-07
6.59177e-06
8.13552e-10
6.59715e-06
-1.9015e-07
6.58518e-06
-3.74272e-07
6.55779e-06
-5.70967e-07
6.5321e-06
-5.86262e-07
6.49927e-06
-5.4147e-07
6.47211e-06
-4.61017e-07
6.45997e-06
-3.28227e-07
6.45392e-06
-1.95779e-07
6.45211e-06
-9.67915e-08
6.45585e-06
-2.55955e-08
6.4627e-06
2.32787e-08
6.47018e-06
5.88553e-08
8.24015e-08
6.47814e-06
6.88692e-06
-6.30055e-09
6.9085e-06
6.33838e-08
6.87119e-06
-4.5826e-07
6.8472e-06
-5.3675e-07
6.85568e-06
-3.15153e-08
6.88056e-06
1.3447e-07
6.90395e-06
-2.25715e-08
6.90967e-06
-1.95876e-07
6.89745e-06
-3.62043e-07
6.87024e-06
-5.43758e-07
6.84471e-06
-5.60739e-07
6.81358e-06
-5.10343e-07
6.7864e-06
-4.33836e-07
6.77381e-06
-3.1563e-07
6.76844e-06
-1.90411e-07
6.76652e-06
-9.48743e-08
6.76927e-06
-2.83437e-08
6.77563e-06
1.69199e-08
6.78322e-06
5.12647e-08
7.46747e-08
6.79095e-06
7.21634e-06
-3.5082e-09
7.23643e-06
4.32976e-08
7.20099e-06
-4.22818e-07
7.17682e-06
-5.1258e-07
7.1864e-06
-4.10997e-08
7.2092e-06
1.11669e-07
7.23084e-06
-4.42073e-08
7.23699e-06
-2.02021e-07
7.22473e-06
-3.49791e-07
7.1977e-06
-5.1673e-07
7.17223e-06
-5.35267e-07
7.14283e-06
-4.80942e-07
7.11597e-06
-4.06977e-07
7.10277e-06
-3.02428e-07
7.09799e-06
-1.85627e-07
7.09622e-06
-9.31081e-08
7.09813e-06
-3.02526e-08
7.10384e-06
1.12048e-08
7.11139e-06
4.37148e-08
6.69813e-08
7.11909e-06
7.56162e-06
-8.97651e-10
7.57994e-06
2.49708e-08
7.54688e-06
-3.89758e-07
7.52203e-06
-4.87731e-07
7.53285e-06
-5.19146e-08
7.55387e-06
9.06467e-08
7.57323e-06
-6.35709e-08
7.57971e-06
-2.085e-07
7.56774e-06
-3.37816e-07
7.5409e-06
-4.89891e-07
7.51542e-06
-5.09786e-07
7.48758e-06
-4.53106e-07
7.46139e-06
-3.80789e-07
7.4476e-06
-2.88633e-07
7.44316e-06
-1.8119e-07
7.44179e-06
-9.17379e-08
7.44306e-06
-3.15239e-08
7.44803e-06
6.2371e-09
7.4554e-06
3.63465e-08
5.9217e-08
7.46316e-06
7.9235e-06
1.40968e-09
7.93976e-06
8.71864e-09
7.9096e-06
-3.59603e-07
7.88371e-06
-4.61835e-07
7.89553e-06
-6.37405e-08
7.91531e-06
7.08728e-08
7.93206e-06
-8.03297e-08
7.93851e-06
-2.14942e-07
7.92709e-06
-3.26395e-07
7.90053e-06
-4.63339e-07
7.87503e-06
-4.84279e-07
7.84843e-06
-4.2651e-07
7.82321e-06
-3.55571e-07
7.80898e-06
-2.74399e-07
7.80463e-06
-1.76846e-07
7.80382e-06
-9.0925e-08
7.80476e-06
-3.24587e-08
7.80895e-06
2.04859e-09
7.81591e-06
2.93773e-08
5.13367e-08
7.82379e-06
8.30279e-06
3.30342e-09
8.31669e-06
-5.18444e-09
8.28979e-06
-3.32703e-07
8.2628e-06
-4.34843e-07
8.27507e-06
-7.6013e-08
8.29416e-06
5.17812e-08
8.30825e-06
-9.44202e-08
8.31409e-06
-2.20779e-07
8.30336e-06
-3.15671e-07
8.27733e-06
-4.37301e-07
8.25169e-06
-4.58641e-07
8.22614e-06
-4.00966e-07
8.20204e-06
-3.31464e-07
8.18755e-06
-2.59907e-07
8.18315e-06
-1.7245e-07
8.18296e-06
-9.0737e-08
8.18393e-06
-3.34283e-08
8.18735e-06
-1.37222e-09
8.19383e-06
2.29006e-08
4.35769e-08
8.20159e-06
8.70027e-06
4.69978e-09
8.71166e-06
-1.65742e-08
8.68807e-06
-3.09118e-07
8.66038e-06
-4.07157e-07
8.67215e-06
-8.77834e-08
8.69105e-06
3.28873e-08
8.70265e-06
-1.0602e-07
8.70727e-06
-2.25399e-07
8.69722e-06
-3.05618e-07
8.67186e-06
-4.11945e-07
8.64604e-06
-4.32822e-07
8.62152e-06
-3.76449e-07
8.59867e-06
-3.08608e-07
8.58413e-06
-2.45373e-07
8.57958e-06
-1.67892e-07
8.57999e-06
-9.11499e-08
8.58126e-06
-3.47029e-08
8.58414e-06
-4.2512e-09
8.58997e-06
1.70698e-08
3.61167e-08
8.59743e-06
9.11677e-06
5.55195e-09
9.12565e-06
-2.54541e-08
9.10502e-06
-2.8849e-07
9.07759e-06
-3.79733e-07
9.08771e-06
-9.78983e-08
9.10658e-06
1.40135e-08
9.11604e-06
-1.15477e-07
9.11897e-06
-2.28331e-07
9.10933e-06
-2.95975e-07
9.08477e-06
-3.87388e-07
9.05897e-06
-4.07022e-07
9.03558e-06
-3.53058e-07
9.0142e-06
-2.87222e-07
8.99977e-06
-2.30948e-07
8.99493e-06
-1.63055e-07
8.99579e-06
-9.20053e-08
8.99758e-06
-3.64937e-08
9.00014e-06
-6.81261e-09
9.00529e-06
1.1925e-08
2.90917e-08
9.01231e-06
9.55314e-06
5.87392e-09
9.55974e-06
-3.20597e-08
9.54137e-06
-2.70119e-07
9.51539e-06
-3.53752e-07
9.52295e-06
-1.05456e-07
9.54135e-06
-4.38506e-09
9.54916e-06
-1.23289e-07
9.55013e-06
-2.29305e-07
9.54051e-06
-2.86351e-07
9.51711e-06
-3.63984e-07
9.49173e-06
-3.8165e-07
9.46957e-06
-3.30896e-07
9.44977e-06
-2.67418e-07
9.43559e-06
-2.16766e-07
9.43029e-06
-1.57762e-07
9.43135e-06
-9.30601e-08
9.4338e-06
-3.89441e-08
9.4362e-06
-9.21055e-09
9.4407e-06
7.42473e-09
2.26e-08
9.44719e-06
1.00103e-05
5.73958e-09
1.0015e-05
-3.68083e-08
9.99807e-06
-2.53171e-07
9.97457e-06
-3.30253e-07
9.97933e-06
-1.10211e-07
9.99633e-06
-2.13883e-08
1.00027e-05
-1.29664e-07
1.00018e-05
-2.28415e-07
9.99208e-06
-2.76614e-07
9.96998e-06
-3.41886e-07
9.94546e-06
-3.5713e-07
9.92472e-06
-3.10156e-07
9.90643e-06
-2.49128e-07
9.89264e-06
-2.0298e-07
9.8868e-06
-1.51923e-07
9.88771e-06
-9.39679e-08
9.89079e-06
-4.2022e-08
9.89326e-06
-1.16825e-08
9.89712e-06
3.56781e-09
1.66019e-08
9.90312e-06
1.04891e-05
5.27402e-09
1.04925e-05
-4.02103e-08
1.04762e-05
-2.3689e-07
1.04558e-05
-3.09801e-07
1.04582e-05
-1.1268e-07
1.0473e-05
-3.61687e-08
1.04782e-05
-1.34863e-07
1.04756e-05
-2.25821e-07
1.04655e-05
-2.66478e-07
1.04445e-05
-3.20899e-07
1.04213e-05
-3.33953e-07
1.04019e-05
-2.90744e-07
1.03852e-05
-2.32407e-07
1.0372e-05
-1.89742e-07
1.03656e-05
-1.45572e-07
1.0366e-05
-9.43608e-08
1.03695e-05
-4.55451e-08
1.03724e-05
-1.45236e-08
1.03756e-05
3.39757e-10
1.11431e-08
1.03811e-05
1.09907e-05
4.63666e-09
1.09932e-05
-4.28032e-08
1.09771e-05
-2.207e-07
1.09596e-05
-2.92342e-07
1.09609e-05
-1.14003e-07
1.09729e-05
-4.80969e-08
1.0977e-05
-1.39036e-07
1.09732e-05
-2.22016e-07
1.09624e-05
-2.55628e-07
1.09423e-05
-3.00783e-07
1.09204e-05
-3.12083e-07
1.09022e-05
-2.72579e-07
1.0887e-05
-2.17222e-07
1.08745e-05
-1.77232e-07
1.08678e-05
-1.3882e-07
1.08675e-05
-9.40725e-08
1.0871e-05
-4.906e-08
1.08745e-05
-1.79878e-08
1.08773e-05
-2.47894e-09
6.35401e-09
1.08821e-05
1.1516e-05
4.01586e-09
1.15182e-05
-4.50595e-08
1.15019e-05
-2.04317e-07
1.14869e-05
-2.77383e-07
1.14883e-05
-1.15359e-07
1.14972e-05
-5.7008e-08
1.14999e-05
-1.41758e-07
1.14956e-05
-2.17686e-07
1.14843e-05
-2.44404e-07
1.14647e-05
-2.81123e-07
1.14436e-05
-2.91058e-07
1.14266e-05
-2.55578e-07
1.1413e-05
-2.0355e-07
1.14014e-05
-1.65619e-07
1.13944e-05
-1.31867e-07
1.13934e-05
-9.30651e-08
1.13965e-05
-5.21713e-08
1.14004e-05
-2.18512e-08
1.14034e-05
-5.48664e-09
2.45424e-09
1.14073e-05
1.20662e-05
3.60438e-09
1.20686e-05
-4.7394e-08
1.20519e-05
-1.87637e-07
1.20388e-05
-2.64287e-07
1.2041e-05
-1.1754e-07
1.20473e-05
-6.33274e-08
1.20479e-05
-1.4232e-07
1.20433e-05
-2.131e-07
1.20324e-05
-2.33503e-07
1.20131e-05
-2.61831e-07
1.19925e-05
-2.70442e-07
1.19763e-05
-2.39468e-07
1.1964e-05
-1.91238e-07
1.19535e-05
-1.55082e-07
1.19466e-05
-1.24937e-07
1.19449e-05
-9.1414e-08
1.19474e-05
-5.46791e-08
1.19514e-05
-2.5809e-08
1.19548e-05
-8.90164e-09
-7.66642e-10
1.1958e-05
1.26426e-05
3.57946e-09
1.26453e-05
-5.01113e-08
1.26285e-05
-1.70786e-07
1.26164e-05
-2.52241e-07
1.262e-05
-1.21107e-07
1.26244e-05
-6.77006e-08
1.26222e-05
-1.40137e-07
1.26172e-05
-2.08094e-07
1.26071e-05
-2.23461e-07
1.25885e-05
-2.43211e-07
1.25683e-05
-2.50179e-07
1.25526e-05
-2.23803e-07
1.25414e-05
-1.80053e-07
1.2532e-05
-1.45711e-07
1.25254e-05
-1.18266e-07
1.25232e-05
-8.92265e-08
1.25251e-05
-5.65855e-08
1.25288e-05
-2.94789e-08
1.25324e-05
-1.2536e-08
-3.93995e-09
1.25356e-05
1.32464e-05
4.09563e-09
1.32497e-05
-5.34072e-08
1.3233e-05
-1.54058e-07
1.32211e-05
-2.40387e-07
1.32263e-05
-1.26242e-07
1.32295e-05
-7.09225e-08
1.32244e-05
-1.35055e-07
1.32183e-05
-2.02026e-07
1.32094e-05
-2.14508e-07
1.31921e-05
-2.25959e-07
1.31723e-05
-2.30396e-07
1.31568e-05
-2.08235e-07
1.31464e-05
-1.69679e-07
1.31381e-05
-1.37452e-07
1.3132e-05
-1.12073e-07
1.31294e-05
-8.66673e-08
1.31307e-05
-5.79046e-08
1.3134e-05
-3.27569e-08
1.31377e-05
-1.62248e-08
-7.18365e-09
1.31409e-05
1.3879e-05
5.23425e-09
1.3883e-05
-5.73844e-08
1.38667e-05
-1.37803e-07
1.38544e-05
-2.28033e-07
1.38606e-05
-1.32486e-07
1.38635e-05
-7.37519e-08
1.38558e-05
-1.27406e-07
1.38478e-05
-1.94007e-07
1.384e-05
-2.06695e-07
1.3825e-05
-2.10923e-07
1.3806e-05
-2.11413e-07
1.37905e-05
-1.92766e-07
1.37804e-05
-1.59548e-07
1.37731e-05
-1.30151e-07
1.37675e-05
-1.06494e-07
1.37648e-05
-8.39346e-08
1.37656e-05
-5.8709e-08
1.37684e-05
-3.56178e-08
1.37719e-05
-1.97136e-08
-1.05118e-08
1.37752e-05
1.45419e-05
6.98558e-09
1.4546e-05
-6.14969e-08
1.45311e-05
-1.22849e-07
1.4518e-05
-2.14992e-07
1.45241e-05
-1.38587e-07
1.45269e-05
-7.65215e-08
1.45174e-05
-1.17912e-07
1.45073e-05
-1.8386e-07
1.45001e-05
-1.99519e-07
1.44876e-05
-1.98488e-07
1.44704e-05
-1.94151e-07
1.44551e-05
-1.77458e-07
1.44449e-05
-1.49352e-07
1.44382e-05
-1.23459e-07
1.44333e-05
-1.01631e-07
1.44306e-05
-8.12177e-08
1.4431e-05
-5.90938e-08
1.44334e-05
-3.806e-08
1.44366e-05
-2.2881e-08
-1.38152e-08
1.44399e-05
1.52366e-05
9.23836e-09
1.52405e-05
-6.53223e-08
1.52282e-05
-1.1056e-07
1.52134e-05
-2.00215e-07
1.52172e-05
-1.42429e-07
1.52206e-05
-7.98825e-08
1.52108e-05
-1.08168e-07
1.51991e-05
-1.72112e-07
1.51914e-05
-1.91796e-07
1.51813e-05
-1.88453e-07
1.51667e-05
-1.79522e-07
1.51518e-05
-1.62579e-07
1.51416e-05
-1.3908e-07
1.51349e-05
-1.16832e-07
1.51307e-05
-9.74203e-08
1.51282e-05
-7.86952e-08
1.51283e-05
-5.91846e-08
1.51304e-05
-4.01626e-08
1.51332e-05
-2.5687e-08
-1.69587e-08
1.51363e-05
1.59648e-05
1.18043e-08
1.59741e-05
-7.46706e-08
1.59608e-05
-9.72273e-08
1.594e-05
-1.79451e-07
1.59413e-05
-1.4373e-07
1.5947e-05
-8.55444e-08
1.59383e-05
-9.94411e-08
1.59252e-05
-1.5901e-07
1.59159e-05
-1.82591e-07
1.59075e-05
-1.80014e-07
1.58957e-05
-1.67763e-07
1.58823e-05
-1.49177e-07
1.5872e-05
-1.28711e-07
1.58652e-05
-1.10079e-07
1.58612e-05
-9.3448e-08
1.58591e-05
-7.65746e-08
1.5859e-05
-5.90282e-08
1.58608e-05
-4.19948e-08
1.58633e-05
-2.81927e-08
-1.97746e-08
1.58661e-05
1.67274e-05
1.49689e-08
1.6724e-05
-7.11851e-08
1.67145e-05
-8.77535e-08
1.66984e-05
-1.6336e-07
1.66994e-05
-1.44764e-07
1.67077e-05
-9.38444e-08
1.67012e-05
-9.2894e-08
1.6687e-05
-1.44842e-07
1.66762e-05
-1.71815e-07
1.6668e-05
-1.7174e-07
1.66586e-05
-1.58369e-07
1.66475e-05
-1.38123e-07
1.66374e-05
-1.18623e-07
1.66305e-05
-1.03181e-07
1.66265e-05
-8.94254e-08
1.66246e-05
-7.46956e-08
1.66245e-05
-5.88708e-08
1.6626e-05
-4.35584e-08
1.66284e-05
-3.05919e-08
-2.22267e-08
1.66309e-05
1.75273e-05
1.79897e-08
1.75286e-05
-7.24671e-08
1.75175e-05
-7.6662e-08
1.74978e-05
-1.43647e-07
1.74942e-05
-1.41181e-07
1.75036e-05
-1.03217e-07
1.75002e-05
-8.95102e-08
1.74861e-05
-1.30673e-07
1.7474e-05
-1.59758e-07
1.7465e-05
-1.62734e-07
1.74572e-05
-1.50614e-07
1.74486e-05
-1.29496e-07
1.74397e-05
-1.09755e-07
1.74326e-05
-9.609e-08
1.74285e-05
-8.52435e-08
1.74265e-05
-7.2744e-08
1.74265e-05
-5.88108e-08
1.74277e-05
-4.48006e-08
1.743e-05
-3.29074e-08
-2.44472e-08
1.74322e-05
1.83656e-05
2.07522e-08
1.83623e-05
-6.92244e-08
1.83549e-05
-6.91908e-08
1.83372e-05
-1.25958e-07
1.83293e-05
-1.33265e-07
1.83372e-05
-1.11157e-07
1.83369e-05
-8.91593e-08
1.83239e-05
-1.17765e-07
1.83109e-05
-1.46718e-07
1.8301e-05
-1.52779e-07