/*--------------------------------*- C++ -*----------------------------------*\
| =========                 |                                                 |
| \\      /  F ield         | OpenFOAM: The Open Source CFD Toolbox           |
|  \\    /   O peration     | Version:  2506                                  |
|   \\  /    A nd           | Website:  www.openfoam.com                      |
|    \\/     M anipulation  |                                                 |
\*---------------------------------------------------------------------------*/
FoamFile
{
    version     2.0;
    format      ascii;
    arch        "LSB;label=32;scalar=64";
    class       volVectorField;
    location    "4.75";
    object      U;
}
// * * * * * * * * * * * * * * * * * * * * * * * * * * * * * * * * * * * * * //

dimensions      [0 1 -1 0 0 0 0];

internalField   nonuniform List<vector> 
9600
(
(0.958276 0.0190642 0)
(1.06614 -0.0169343 0)
(0.954476 -0.00123961 0)
(1.02968 -0.00805664 0)
(0.899517 0.0331693 0)
(1.15594 -0.0163571 0)
(0.684937 0.00481574 0)
(1.17423 0.0148941 0)
(0.818023 -0.0154144 0)
(1.06354 -0.00218121 0)
(0.932886 0.00143704 0)
(1.0579 0.00498855 0)
(0.919516 0.025674 0)
(1.06932 0.00351004 0)
(0.896473 0.0329759 0)
(1.08396 0.00727772 0)
(0.842383 0.0295249 0)
(1.07421 0.00930056 0)
(0.792772 0.0217748 0)
(1.06323 0.0115184 0)
(0.960028 0.0189084 0)
(1.05904 -0.0167514 0)
(0.955154 -0.0010773 0)
(1.02549 -0.00742831 0)
(0.901843 0.0320131 0)
(1.14412 -0.0135281 0)
(0.696612 0.0046047 0)
(1.15577 0.0138556 0)
(0.84373 -0.0141873 0)
(1.05609 -0.00383825 0)
(0.945896 0.00116117 0)
(1.05206 0.00556416 0)
(0.933143 0.0252867 0)
(1.05219 0.00438871 0)
(0.917962 0.0319267 0)
(1.04885 0.00903777 0)
(0.888117 0.0293488 0)
(1.00752 0.0106469 0)
(0.883113 0.0233444 0)
(0.947954 0.0109959 0)
(0.96327 0.0187165 0)
(1.05107 -0.0166129 0)
(0.958168 -0.000906313 0)
(1.01856 -0.0068982 0)
(0.906172 0.0306998 0)
(1.12775 -0.0115057 0)
(0.726691 0.00392697 0)
(1.11755 0.0124204 0)
(0.884728 -0.013292 0)
(1.03553 -0.00513578 0)
(0.966712 0.00115475 0)
(1.03753 0.00597808 0)
(0.959068 0.0249961 0)
(1.03001 0.00498769 0)
(0.949119 0.0314373 0)
(1.01906 0.0102338 0)
(0.933324 0.0296038 0)
(0.975322 0.0116201 0)
(0.93271 0.0235586 0)
(0.939939 0.0117955 0)
(0.967835 0.0185627 0)
(1.04254 -0.0164552 0)
(0.963162 -0.000748917 0)
(1.01057 -0.00640464 0)
(0.912964 0.0296166 0)
(1.1065 -0.00969062 0)
(0.773202 0.00369906 0)
(1.06728 0.0108517 0)
(0.930544 -0.0125164 0)
(1.00858 -0.00609669 0)
(0.983072 0.00113961 0)
(1.02063 0.00604537 0)
(0.98186 0.0249469 0)
(1.01346 0.00532837 0)
(0.97209 0.0315955 0)
(1.00441 0.010787 0)
(0.959549 0.0304344 0)
(0.970699 0.011926 0)
(0.952086 0.0239046 0)
(0.954127 0.0125689 0)
(0.9734 0.0184459 0)
(1.0345 -0.0163036 0)
(0.968867 -0.000593427 0)
(1.00305 -0.00590649 0)
(0.922421 0.0287052 0)
(1.08319 -0.00834548 0)
(0.826782 0.00402483 0)
(1.01957 0.00922958 0)
(0.967164 -0.0119739 0)
(0.986479 -0.00667442 0)
(0.988489 0.000914213 0)
(1.00729 0.00599877 0)
(0.992942 0.0249006 0)
(1.00357 0.00578529 0)
(0.98091 0.0315763 0)
(0.996511 0.0114195 0)
(0.968983 0.0308804 0)
(0.971967 0.0125941 0)
(0.959895 0.0240963 0)
(0.963258 0.0133566 0)
(0.979547 0.0183391 0)
(1.0277 -0.0161449 0)
(0.974002 -0.000422719 0)
(0.996917 -0.00543049 0)
(0.934038 0.0279128 0)
(1.06124 -0.0074239 0)
(0.876364 0.00470727 0)
(0.987131 0.00772035 0)
(0.989105 -0.0117129 0)
(0.975252 -0.00686617 0)
(0.986733 0.000583231 0)
(0.998565 0.00592763 0)
(0.994118 0.0248126 0)
(0.998549 0.00634733 0)
(0.979843 0.0314367 0)
(0.990397 0.0121246 0)
(0.969834 0.0309019 0)
(0.972898 0.0134268 0)
(0.96488 0.0237073 0)
(0.96986 0.0140525 0)
(0.985823 0.0182247 0)
(1.02248 -0.0159629 0)
(0.977919 -0.000244346 0)
(0.992422 -0.00501422 0)
(0.946767 0.0272577 0)
(1.04325 -0.00685649 0)
(0.915285 0.00548837 0)
(0.973264 0.00649487 0)
(0.999265 -0.0116591 0)
(0.973308 -0.00679342 0)
(0.98421 0.00027857 0)
(0.993353 0.00583443 0)
(0.990921 0.0246785 0)
(0.996655 0.00694113 0)
(0.976346 0.0313621 0)
(0.986603 0.0127948 0)
(0.969888 0.0306931 0)
(0.975055 0.0141781 0)
(0.9709 0.0229596 0)
(0.977101 0.0147447 0)
(0.991802 0.0180916 0)
(1.01877 -0.015744 0)
(0.9807 -6.66058e-05 0)
(0.989338 -0.00468185 0)
(0.959615 0.0267258 0)
(1.03007 -0.00653181 0)
(0.942536 0.00620646 0)
(0.97323 0.0056008 0)
(1.00324 -0.011685 0)
(0.9759 -0.0065903 0)
(0.983737 5.37269e-05 0)
(0.990496 0.00575324 0)
(0.987661 0.0244599 0)
(0.996222 0.00751629 0)
(0.975346 0.0312949 0)
(0.986245 0.0134117 0)
(0.973148 0.0302894 0)
(0.979803 0.0148382 0)
(0.978727 0.0220394 0)
(0.985193 0.015387 0)
(0.997112 0.0179311 0)
(1.01623 -0.0154833 0)
(0.982847 0.000107897 0)
(0.987337 -0.0044473 0)
(0.97193 0.0262775 0)
(1.02121 -0.00633232 0)
(0.960497 0.00676911 0)
(0.980213 0.00497321 0)
(1.00521 -0.0116868 0)
(0.979417 -0.00634804 0)
(0.984757 -7.99148e-05 0)
(0.988951 0.00571002 0)
(0.98605 0.0241566 0)
(0.996069 0.00803903 0)
(0.977707 0.0311413 0)
(0.988702 0.0139878 0)
(0.979471 0.0296689 0)
(0.986444 0.0154516 0)
(0.987335 0.0210012 0)
(0.993195 0.0159721 0)
(1.00145 0.0177386 0)
(1.01448 -0.015182 0)
(0.984878 0.000277089 0)
(0.98621 -0.00431231 0)
(0.983239 0.0258787 0)
(1.01571 -0.00616759 0)
(0.972295 0.00713397 0)
(0.989151 0.00452812 0)
(1.00695 -0.0116123 0)
(0.982381 -0.00607268 0)
(0.986038 -0.000124102 0)
(0.987902 0.00569891 0)
(0.98586 0.0238079 0)
(0.995692 0.0084881 0)
(0.981886 0.0308548 0)
(0.992359 0.014523 0)
(0.986785 0.0288484 0)
(0.993381 0.0160615 0)
(0.995413 0.0199021 0)
(1.00028 0.0165311 0)
(1.00461 0.0175145 0)
(1.01323 -0.0148467 0)
(0.987086 0.000435866 0)
(0.985815 -0.00426698 0)
(0.993041 0.0255076 0)
(1.01266 -0.00598311 0)
(0.98033 0.00730807 0)
(0.997317 0.00420063 0)
(1.00861 -0.0114431 0)
(0.984534 -0.00576454 0)
(0.987064 -9.89214e-05 0)
(0.987004 0.00570516 0)
(0.9862 0.0234385 0)
(0.995059 0.00885745 0)
(0.986107 0.0304081 0)
(0.99593 0.015028 0)
(0.993388 0.0278602 0)
(0.999481 0.0166815 0)
(1.00223 0.0188324 0)
(1.00609 0.017043 0)
(1.00651 0.0172642 0)
(1.01231 -0.0144888 0)
(0.989512 0.000579835 0)
(0.985955 -0.00429433 0)
(1.00082 0.0251456 0)
(1.01134 -0.00575503 0)
(0.985997 0.0073283 0)
(1.00356 0.00395641 0)
(1.00984 -0.0111873 0)
(0.985945 -0.00541672 0)
(0.987886 -1.60619e-05 0)
(0.986356 0.00572577 0)
(0.986521 0.0230456 0)
(0.99442 0.0091659 0)
(0.989554 0.0297855 0)
(0.998976 0.0155089 0)
(0.99875 0.026738 0)
(1.00443 0.0172993 0)
(1.00767 0.0178447 0)
(1.01062 0.0174375 0)
(1.00723 0.016995 0)
(1.01162 -0.0141209 0)
(0.992027 0.000707611 0)
(0.986359 -0.00436999 0)
(1.00626 0.0247738 0)
(1.01111 -0.00547927 0)
(0.990022 0.00723783 0)
(1.00763 0.00378466 0)
(1.0104 -0.0108657 0)
(0.986713 -0.00503601 0)
(0.988631 0.000107265 0)
(0.986211 0.00575551 0)
(0.986902 0.022627 0)
(0.994174 0.00942909 0)
(0.992387 0.0289922 0)
(1.00166 0.0159579 0)
(1.0031 0.0255234 0)
(1.00836 0.0178896 0)
(1.01184 0.0169718 0)
(1.01394 0.0176872 0)
(1.007 0.0167142 0)
(1.01113 -0.0137534 0)
(0.994426 0.00081842 0)
(0.986781 -0.00446332 0)
(1.00933 0.024378 0)
(1.0114 -0.00516371 0)
(0.99283 0.00707501 0)
(1.00977 0.00368061 0)
(1.01036 -0.0105023 0)
(0.986989 -0.0046399 0)
(0.989299 0.0002387 0)
(0.986681 0.00578403 0)
(0.98772 0.0221825 0)
(0.994603 0.00965111 0)
(0.995058 0.0280439 0)
(1.00419 0.0163883 0)
(1.00668 0.0242678 0)
(1.01131 0.0184166 0)
(1.01479 0.0162778 0)
(1.01606 0.0178088 0)
(1.00612 0.016428 0)
(1.01084 -0.0133937 0)
(0.996504 0.00091423 0)
(0.987097 -0.00454377 0)
(1.01036 0.0239481 0)
(1.01178 -0.00482352 0)
(0.994724 0.00686818 0)
(1.01045 0.0036432 0)
(1.00997 -0.0101151 0)
(0.987012 -0.00423352 0)
(0.989825 0.000359891 0)
(0.987612 0.00579241 0)
(0.989109 0.0217045 0)
(0.995624 0.00984439 0)
(0.997642 0.0269803 0)
(1.00641 0.0167994 0)
(1.00939 0.0230424 0)
(1.01319 0.0188708 0)
(1.01646 0.0157959 0)
(1.01703 0.0177967 0)
(1.00494 0.0161394 0)
(1.01072 -0.0130444 0)
(0.998127 0.00099883 0)
(0.987313 -0.00458759 0)
(1.00989 0.0234778 0)
(1.01202 -0.00447258 0)
(0.995944 0.00663622 0)
(1.0102 0.00366778 0)
(1.00951 -0.00971871 0)
(0.987025 -0.00382018 0)
(0.990184 0.000460252 0)
(0.988683 0.00576087 0)
(0.990743 0.0211878 0)
(0.996807 0.0100309 0)
(0.999754 0.025849 0)
(1.00789 0.0171969 0)
(1.01096 0.0218973 0)
(1.01385 0.019244 0)
(1.01692 0.0155284 0)
(1.01699 0.0176607 0)
(1.00374 0.0158488 0)
(1.01072 -0.0127036 0)
(0.999274 0.00107421 0)
(0.987505 -0.00458081 0)
(1.00854 0.0229646 0)
(1.01206 -0.0041203 0)
(0.996684 0.00638964 0)
(1.00948 0.00374255 0)
(1.00917 -0.0093325 0)
(0.987181 -0.00339769 0)
(0.990422 0.000540503 0)
(0.989611 0.00568623 0)
(0.992095 0.0206405 0)
(0.997667 0.0102287 0)
(1.00097 0.0246972 0)
(1.00833 0.0175756 0)
(1.01133 0.0208662 0)
(1.0134 0.0195415 0)
(1.01641 0.0154515 0)
(1.01626 0.0174097 0)
(1.00267 0.0155546 0)
(1.01077 -0.012366 0)
(1.00002 0.00113955 0)
(0.987745 -0.00451796 0)
(1.00689 0.02241 0)
(1.01197 -0.00376927 0)
(0.997115 0.00612858 0)
(1.00856 0.00385978 0)
(1.00898 -0.00897361 0)
(0.987508 -0.0029642 0)
(0.990603 0.00062103 0)
(0.990274 0.00557535 0)
(0.99282 0.0200767 0)
(0.997959 0.0104491 0)
(1.00122 0.0235616 0)
(1.00779 0.0179233 0)
(1.01075 0.0199574 0)
(1.01222 0.0197559 0)
(1.01531 0.0155193 0)
(1.01518 0.01706 0)
(1.00182 0.0152546 0)
(1.01083 -0.0120257 0)
(1.00048 0.0011933 0)
(0.988055 -0.00439995 0)
(1.00532 0.0218169 0)
(1.01179 -0.00341731 0)
(0.99737 0.00585484 0)
(1.0076 0.00400703 0)
(1.0089 -0.0086434 0)
(0.987959 -0.00252066 0)
(0.990767 0.000716106 0)
(0.990701 0.00544392 0)
(0.992913 0.0195131 0)
(0.997735 0.0106845 0)
(1.00077 0.0224688 0)
(1.00665 0.0182463 0)
(1.00967 0.0191603 0)
(1.01074 0.019841 0)
(1.01398 0.0156631 0)
(1.01407 0.0166283 0)
(1.00118 0.0149464 0)
(1.01085 -0.0116772 0)
(1.00075 0.00123284 0)
(0.988423 -0.00422879 0)
(1.00401 0.0211846 0)
(1.01159 -0.0030585 0)
(0.997535 0.00556783 0)
(1.00669 0.00417883 0)
(1.00884 -0.00834524 0)
(0.988465 -0.00206485 0)
(0.990927 0.000840709 0)
(0.990997 0.0053041 0)
(0.99259 0.0189528 0)
(0.997216 0.0109351 0)
(1.00003 0.0214339 0)
(1.0053 0.0185184 0)
(1.0085 0.0184717 0)
(1.00933 0.0197842 0)
(1.01269 0.0158482 0)
(1.0131 0.0161512 0)
(1.00072 0.0146283 0)
(1.01082 -0.0113154 0)
(1.00091 0.00125517 0)
(0.988822 -0.00401046 0)
(1.003 0.0205149 0)
(1.01135 -0.00268914 0)
(0.99766 0.0052639 0)
(1.00588 0.00437262 0)
(1.00876 -0.00807312 0)
(0.988972 -0.00160821 0)
(0.991087 0.00100551 0)
(0.991281 0.00515593 0)
(0.992118 0.0184144 0)
(0.996635 0.0111866 0)
(0.999319 0.0204519 0)
(1.00407 0.018721 0)
(1.00746 0.0178776 0)
(1.00818 0.0196111 0)
(1.01158 0.016071 0)
(1.01235 0.015679 0)
(1.00039 0.0142989 0)
(1.01074 -0.0109368 0)
(1.00102 0.0012593 0)
(0.989233 -0.0037509 0)
(1.00227 0.0198105 0)
(1.0111 -0.00230527 0)
(0.997766 0.00494621 0)
(1.00519 0.00457669 0)
(1.00863 -0.00781881 0)
(0.989451 -0.00114984 0)
(0.991248 0.00121724 0)
(0.991638 0.00499958 0)
(0.991692 0.0179145 0)
(0.996146 0.0114209 0)
(0.998813 0.0195054 0)
(1.0031 0.0188758 0)
(1.00667 0.0173543 0)
(1.00735 0.0193344 0)
(1.01068 0.0163177 0)
(1.01181 0.0152397 0)
(1.00016 0.0139569 0)
(1.01063 -0.0105395 0)
(1.00108 0.00124452 0)
(0.989649 -0.00345254 0)
(1.00177 0.0190716 0)
(1.01082 -0.00190151 0)
(0.997866 0.00461215 0)
(1.00461 0.00480404 0)
(1.00846 -0.00758548 0)
(0.989894 -0.000708072 0)
(0.991402 0.00147797 0)
(0.992107 0.00483279 0)
(0.991411 0.0174337 0)
(0.995804 0.011657 0)
(0.998559 0.0185889 0)
(1.00242 0.0189629 0)
(1.00612 0.0168967 0)
(1.00684 0.0189512 0)
(1.00996 0.0165618 0)
(1.01143 0.0148613 0)
(1 0.0136016 0)
(1.01049 -0.0101213 0)
(1.00113 0.00120916 0)
(0.990064 -0.00312028 0)
(1.00143 0.0182992 0)
(1.01053 -0.00147239 0)
(0.997966 0.00425529 0)
(1.00414 0.00505292 0)
(1.00824 -0.00735298 0)
(0.990309 -0.000302579 0)
(0.991543 0.00178814 0)
(0.99268 0.0046442 0)
(0.9913 0.0169581 0)
(0.9956 0.0118977 0)
(0.998523 0.0176958 0)
(1.002 0.0189797 0)
(1.00574 0.0165394 0)
(1.00657 0.018455 0)
(1.00939 0.0167692 0)
(1.01115 0.014585 0)
(0.999889 0.0132325 0)
(1.01033 -0.00968127 0)
(1.00118 0.00115189 0)
(0.990478 -0.00275662 0)
(1.00119 0.0174975 0)
(1.01023 -0.00102507 0)
(0.998074 0.00389061 0)
(1.00374 0.00529692 0)
(1.00801 -0.00710537 0)
(0.990711 8.07859e-05 0)
(0.991667 0.00216164 0)
(0.993329 0.00444221 0)
(0.991345 0.0164821 0)
(0.995494 0.0121361 0)
(0.998648 0.0168181 0)
(1.00177 0.0189339 0)
(1.00547 0.0162907 0)
(1.00648 0.0178553 0)
(1.00894 0.0169115 0)
(1.0109 0.0144478 0)
(0.999812 0.0128494 0)
(1.01013 -0.00921893 0)
(1.00124 0.00107441 0)
(0.990886 -0.00236467 0)
(1.00102 0.0166692 0)
(1.00991 -0.000556956 0)
(0.998198 0.00351453 0)
(1.00338 0.0055472 0)
(1.00777 -0.00684314 0)
(0.991113 0.000407873 0)
(0.991776 0.00259675 0)
(0.994022 0.00424102 0)
(0.99152 0.0159771 0)
(0.99544 0.0123923 0)
(0.998876 0.0159621 0)
(1.00168 0.0188 0)
(1.00525 0.0161429 0)
(1.0065 0.0171884 0)
(1.00858 0.0169524 0)
(1.01063 0.0144632 0)
(0.999763 0.0124511 0)
(1.00992 -0.00873311 0)
(1.00132 0.000974365 0)
(0.991287 -0.00194426 0)
(1.0009 0.0158146 0)
(1.00957 -7.16367e-05 0)
(0.998343 0.00313134 0)
(1.00305 0.0057958 0)
(1.00753 -0.00654967 0)
(0.991526 0.00066118 0)
(0.991879 0.00307194 0)
(0.994726 0.00404413 0)
(0.991806 0.0154462 0)
(0.995407 0.0126721 0)
(0.999161 0.0151382 0)
(1.00169 0.0185561 0)
(1.00505 0.0161024 0)
(1.00657 0.0165174 0)
(1.00831 0.0168546 0)
(1.01032 0.0146063 0)
(0.999735 0.0120394 0)
(1.00967 -0.00822667 0)
(1.00141 0.000853303 0)
(0.99168 -0.00150058 0)
(1.00081 0.0149439 0)
(1.00922 0.000414742 0)
(0.99851 0.00276363 0)
(1.00273 0.00601436 0)
(1.00731 -0.00620367 0)
(0.991957 0.000858377 0)
(0.99198 0.00358187 0)
(0.995421 0.00387453 0)
(0.99219 0.0148795 0)
(0.995371 0.0129657 0)
(0.999465 0.0143728 0)
(1.00178 0.01819 0)
(1.00484 0.016142 0)
(1.00665 0.015892 0)
(1.00813 0.0165845 0)
(1.00999 0.0148076 0)
(0.999721 0.0116133 0)
(1.00941 -0.00769854 0)
(1.00152 0.000711859 0)
(0.992064 -0.00103618 0)
(1.00076 0.014061 0)
(1.00885 0.000908589 0)
(0.998694 0.00240154 0)
(1.00242 0.00620965 0)
(1.00709 -0.00579991 0)
(0.992409 0.000975736 0)
(0.992084 0.00410766 0)
(0.996087 0.00375238 0)
(0.992662 0.014248 0)
(0.99533 0.0132617 0)
(0.999763 0.0137025 0)
(1.00194 0.0176977 0)
(1.00462 0.0162262 0)
(1.00671 0.015362 0)
(1.00805 0.0161376 0)
(1.00964 0.0149904 0)
(0.999718 0.0111736 0)
(1.00913 -0.00714925 0)
(1.00165 0.000548996 0)
(0.992439 -0.000551756 0)
(1.00073 0.013173 0)
(1.00847 0.00139347 0)
(0.998889 0.00206831 0)
(1.00212 0.00637061 0)
(1.00688 -0.00534025 0)
(0.992885 0.00101465 0)
(0.992195 0.00463121 0)
(0.996711 0.00368642 0)
(0.993215 0.0135562 0)
(0.995288 0.0135433 0)
(1.00003 0.0131446 0)
(1.00217 0.0170901 0)
(1.00442 0.0163083 0)
(1.00672 0.0149717 0)
(1.00804 0.0155566 0)
(1.00933 0.0150603 0)
(0.999721 0.0107205 0)
(1.00883 -0.00657934 0)
(1.00179 0.000367079 0)
(0.992803 -5.42234e-05 0)
(1.00073 0.0122907 0)
(1.00809 0.00185645 0)
(0.999089 0.00177513 0)
(1.00184 0.00646346 0)
(1.00667 -0.00480484 0)
(0.993388 0.00101633 0)
(0.992315 0.00513954 0)
(0.99728 0.00368817 0)
(0.99384 0.0128288 0)
(0.99526 0.0137774 0)
(1.00025 0.012703 0)
(1.00245 0.016388 0)
(1.00424 0.0163284 0)
(1.00665 0.0147151 0)
(1.00808 0.0149319 0)
(1.0091 0.0149572 0)
(0.999727 0.0102543 0)
(1.00852 -0.00599104 0)
(1.00193 0.00016837 0)
(0.993159 0.000453171 0)
(1.00073 0.0114205 0)
(1.00771 0.00229967 0)
(0.999287 0.00153095 0)
(1.00157 0.00649388 0)
(1.00646 -0.00420487 0)
(0.993913 0.00098601 0)
(0.992446 0.00560095 0)
(0.997788 0.00378351 0)
(0.994524 0.0120769 0)
(0.995258 0.0139455 0)
(1.00042 0.0123903 0)
(1.00278 0.0156178 0)
(1.0041 0.0162633 0)
(1.00652 0.0145673 0)
(1.00814 0.0143336 0)
(1.00897 0.0146679 0)
(0.999736 0.00977695 0)
(1.0082 -0.00538895 0)
(1.00208 -4.21306e-05 0)
(0.993505 0.0009608 0)
(1.00075 0.0105764 0)
(1.00734 0.00270119 0)
(0.999478 0.0013636 0)
(1.00133 0.00644504 0)
(1.00624 -0.00356241 0)
(0.99446 0.000939205 0)
(0.992597 0.00600007 0)
(0.998228 0.00397012 0)
(0.995254 0.0113162 0)
(0.995299 0.0140381 0)
(1.00053 0.0122035 0)
(1.00314 0.0148282 0)
(1.00403 0.016101 0)
(1.00632 0.0145148 0)
(1.00817 0.0138221 0)
(1.00894 0.0142049 0)
(0.999747 0.00928915 0)
(1.00787 -0.00477093 0)
(1.00223 -0.000266797 0)
(0.993844 0.0014646 0)
(1.00076 0.00976665 0)
(1.00698 0.00304493 0)
(0.999657 0.00127306 0)
(1.00111 0.00632651 0)
(1.00601 -0.00289585 0)
(0.995024 0.000899693 0)
(0.992772 0.00632427 0)
(0.998604 0.0042211 0)
(0.996015 0.0105881 0)
(0.995394 0.014039 0)
(1.00058 0.0121217 0)
(1.00351 0.0140525 0)
(1.00405 0.015818 0)
(1.00609 0.0145011 0)
(1.00815 0.0134296 0)
(1.009 0.0136425 0)
(0.999761 0.00879108 0)
(1.00753 -0.00414062 0)
(1.00238 -0.000496958 0)
(0.994175 0.00195118 0)
(1.00078 0.00900743 0)
(1.00663 0.00332058 0)
(0.999824 0.00127409 0)
(1.00091 0.00615829 0)
(1.00578 -0.00222317 0)
(0.995599 0.000880241 0)
(0.992979 0.00657026 0)
(0.998917 0.00451982 0)
(0.996793 0.00989394 0)
(0.995553 0.0139398 0)
(1.00057 0.0121325 0)
(1.00388 0.0133236 0)
(1.00414 0.0154183 0)
(1.00584 0.0144888 0)
(1.00806 0.0131404 0)
(1.00909 0.0130691 0)
(0.999777 0.00828339 0)
(1.00718 -0.00350088 0)
(1.00254 -0.0007296 0)
(0.9945 0.00241093 0)
(1.0008 0.00831309 0)
(1.00631 0.00351448 0)
(0.999979 0.0013585 0)
(1.00074 0.00594141 0)
(1.00554 -0.0015588 0)
(0.996178 0.000907652 0)
(0.993219 0.00673964 0)
(0.999171 0.00485698 0)
(0.997575 0.00925698 0)
(0.995785 0.0137287 0)
(1.00051 0.0122035 0)
(1.00422 0.0126755 0)
(1.00432 0.0149221 0)
(1.0056 0.0144522 0)
(1.00788 0.0129448 0)
(1.00917 0.0125584 0)
(0.999795 0.00777157 0)
(1.00682 -0.00285988 0)
(1.00271 -0.000956942 0)
(0.994821 0.00283792 0)
(1.0008 0.00769686 0)
(1.00601 0.00360738 0)
(1.00012 0.00151302 0)
(1.00059 0.00571202 0)
(1.00531 -0.000940262 0)
(0.996757 0.000975962 0)
(0.993497 0.00684895 0)
(0.999374 0.00520063 0)
(0.998346 0.00868841 0)
(0.996094 0.0134362 0)
(1.00041 0.0123029 0)
(1.00452 0.0121284 0)
(1.00458 0.0143435 0)
(1.0054 0.0143606 0)
(1.00764 0.0128182 0)
(1.00921 0.0121556 0)
(0.999817 0.00725465 0)
(1.00644 -0.00222042 0)
(1.00287 -0.00117244 0)
(0.995141 0.00321937 0)
(1.00079 0.0071663 0)
(1.00573 0.00361446 0)
(1.00026 0.00171835 0)
(1.00046 0.00549176 0)
(1.00508 -0.000372426 0)
(0.997333 0.00108387 0)
(0.993812 0.00691864 0)
(0.999528 0.0055366 0)
(0.999098 0.00818671 0)
(0.996484 0.0130778 0)
(1.00029 0.0124179 0)
(1.00476 0.011678 0)
(1.00491 0.0136849 0)
(1.00525 0.0142231 0)
(1.00735 0.0127382 0)
(1.00917 0.0118441 0)
(0.999841 0.00673552 0)
(1.00605 -0.00159005 0)
(1.00302 -0.00136937 0)
(0.995462 0.00353936 0)
(1.00077 0.00673627 0)
(1.00547 0.00354927 0)
(1.00038 0.0019515 0)
(1.00034 0.00529951 0)
(1.00485 0.000138219 0)
(0.997902 0.00122065 0)
(0.994164 0.0069501 0)
(0.999641 0.00588145 0)
(0.999818 0.00774678 0)
(0.996956 0.0126412 0)
(1.00016 0.0125169 0)
(1.00491 0.0113509 0)
(1.00529 0.0129774 0)
(1.00519 0.0140083 0)
(1.00703 0.012693 0)
(1.00906 0.0115878 0)
(0.999868 0.00621855 0)
(1.00566 -0.000973575 0)
(1.00318 -0.00154137 0)
(0.995788 0.00378281 0)
(1.00073 0.00640964 0)
(1.00524 0.00342191 0)
(1.00051 0.00218397 0)
(1.00024 0.00515583 0)
(1.00463 0.000598726 0)
(0.998465 0.00137213 0)
(0.994558 0.00695285 0)
(0.999717 0.00622198 0)
(1.00049 0.00737777 0)
(0.997508 0.0121432 0)
(1.00005 0.0125885 0)
(1.00496 0.0111543 0)
(1.00569 0.0122645 0)
(1.00523 0.0136772 0)
(1.00669 0.0126799 0)
(1.00888 0.0113867 0)
(0.999899 0.00570579 0)
(1.00525 -0.000380136 0)
(1.00332 -0.00167591 0)
(0.996122 0.003945 0)
(1.00066 0.00618023 0)
(1.00502 0.00325851 0)
(1.00065 0.00239821 0)
(1.00016 0.00506817 0)
(1.00441 0.00100579 0)
(0.999018 0.00152711 0)
(0.994992 0.00693423 0)
(0.999765 0.00654839 0)
(1.0011 0.0070808 0)
(0.998135 0.0115969 0)
(0.999975 0.0126101 0)
(1.00492 0.011052 0)
(1.00609 0.0115845 0)
(1.00539 0.0132119 0)
(1.00637 0.0126671 0)
(1.00861 0.0112655 0)
(0.999932 0.00520005 0)
(1.00483 0.000189607 0)
(1.00344 -0.00176671 0)
(0.996466 0.0040168 0)
(1.00058 0.00603853 0)
(1.00482 0.00307891 0)
(1.0008 0.00257363 0)
(1.00008 0.0050457 0)
(1.0042 0.00137686 0)
(0.999562 0.00166681 0)
(0.995468 0.00688402 0)
(0.999791 0.00686869 0)
(1.00165 0.00685599 0)
(0.998826 0.0110101 0)
(0.999966 0.012556 0)
(1.00479 0.0110378 0)
(1.00644 0.0109932 0)
(1.00565 0.0126213 0)
(1.00612 0.0125834 0)
(1.00827 0.011234 0)
(0.999968 0.00470586 0)
(1.00441 0.000725539 0)
(1.00354 -0.00180585 0)
(0.996824 0.00399745 0)
(1.00049 0.00597249 0)
(1.00463 0.00290247 0)
(1.00097 0.00268066 0)
(1.00001 0.0050753 0)
(1.00398 0.00173817 0)
(1.00009 0.00178516 0)
(0.995989 0.00681033 0)
(0.999808 0.0071717 0)
(1.00212 0.00672196 0)
(0.999564 0.0104037 0)
(1.00004 0.0124045 0)
(1.00458 0.0110852 0)
(1.0067 0.0105262 0)
(1.00601 0.0119578 0)
(1.00598 0.0123822 0)
(1.00789 0.0112567 0)
(1.00001 0.00422587 0)
(1.00399 0.00122202 0)
(1.00361 -0.00178915 0)
(0.997194 0.00390123 0)
(1.00038 0.00595596 0)
(1.00443 0.0027564 0)
(1.00115 0.00272174 0)
(0.999966 0.00513774 0)
(1.00375 0.00210937 0)
(1.0006 0.00188869 0)
(0.996555 0.00669546 0)
(0.999825 0.0074513 0)
(1.0025 0.00667724 0)
(1.00033 0.00978866 0)
(1.00021 0.0121359 0)
(1.00434 0.0111436 0)
(1.00686 0.0101899 0)
(1.00642 0.0112775 0)
(1.00597 0.0120423 0)
(1.00751 0.0112665 0)
(1.00004 0.00376449 0)
(1.00357 0.0016723 0)
(1.00365 -0.00170904 0)
(0.997576 0.00372506 0)
(1.00027 0.00596916 0)
(1.00422 0.00267514 0)
(1.00136 0.00268849 0)
(0.999946 0.00520288 0)
(1.00351 0.00251762 0)
(1.00108 0.00200142 0)
(0.997168 0.0065226 0)
(0.999858 0.00769164 0)
(1.00279 0.00671334 0)
(1.00109 0.00919265 0)
(1.00049 0.0117558 0)
(1.00408 0.0111715 0)
(1.00689 0.00997018 0)
(1.00682 0.0106387 0)
(1.00609 0.0115817 0)
(1.00718 0.0112097 0)
(1.00008 0.00332814 0)
(1.00315 0.00206262 0)
(1.00366 -0.00155991 0)
(0.99797 0.0034787 0)
(1.00016 0.0059979 0)
(1.00399 0.0026729 0)
(1.00158 0.00260014 0)
(0.999966 0.00523752 0)
(1.00325 0.00295567 0)
(1.00152 0.00215493 0)
(0.997821 0.00629329 0)
(0.999922 0.00785597 0)
(1.00299 0.00681728 0)
(1.00181 0.00865356 0)
(1.00087 0.0112687 0)
(1.00386 0.0111353 0)
(1.00682 0.00985084 0)
(1.00718 0.0100926 0)
(1.00633 0.0110375 0)
(1.00695 0.0110508 0)
(1.00013 0.00291904 0)
(1.00273 0.00239239 0)
(1.00362 -0.00134082 0)
(0.998373 0.00317941 0)
(1.00006 0.00600702 0)
(1.00374 0.00275914 0)
(1.0018 0.0024973 0)
(1.00003 0.00522796 0)
(1.00299 0.00340395 0)
(1.00189 0.00236602 0)
(0.9985 0.00602912 0)
(1.00004 0.00792988 0)
(1.00311 0.00696382 0)
(1.00247 0.00820148 0)
(1.00134 0.0107037 0)
(1.0037 0.0110098 0)
(1.00665 0.00979353 0)
(1.00744 0.00965988 0)
(1.00664 0.0104535 0)
(1.00685 0.0107724 0)
(1.00017 0.00254284 0)
(1.00234 0.00264884 0)
(1.00354 -0.0010504 0)
(0.998777 0.00285093 0)
(0.999985 0.00596486 0)
(1.00346 0.00293597 0)
(1.00202 0.00240043 0)
(1.00015 0.00516344 0)
(1.00275 0.00383344 0)
(1.0022 0.00264072 0)
(0.999185 0.00576249 0)
(1.00021 0.00790477 0)
(1.00316 0.00711979 0)
(1.00305 0.00785082 0)
(1.00187 0.0101026 0)
(1.00362 0.0107812 0)
(1.00642 0.00975273 0)
(1.0076 0.00934774 0)
(1.00698 0.009897 0)
(1.00687 0.010385 0)
(1.0002 0.00220271 0)
(1.00196 0.00282911 0)
(1.00342 -0.000704037 0)
(0.999174 0.00251425 0)
(0.999944 0.00585554 0)
(1.00316 0.00317756 0)
(1.00222 0.00234494 0)
(1.00032 0.00503893 0)
(1.00252 0.00421014 0)
(1.00244 0.00296768 0)
(0.999853 0.00551233 0)
(1.00044 0.00778736 0)
(1.00317 0.00725941 0)
(1.00352 0.00759841 0)
(1.00242 0.00950816 0)
(1.00364 0.010461 0)
(1.00619 0.00968922 0)
(1.00765 0.00913124 0)
(1.00729 0.00941684 0)
(1.00701 0.00992571 0)
(1.00024 0.00190102 0)
(1.00161 0.00293068 0)
(1.00326 -0.000318881 0)
(0.999555 0.00220216 0)
(0.999947 0.00566105 0)
(1.00285 0.00345896 0)
(1.00238 0.00236173 0)
(1.00054 0.00486397 0)
(1.00233 0.00451797 0)
(1.0026 0.00332608 0)
(1.00049 0.00531214 0)
(1.00073 0.00759828 0)
(1.00317 0.00735338 0)
(1.00389 0.00742739 0)
(1.00297 0.00895268 0)
(1.00376 0.0100682 0)
(1.00597 0.00957591 0)
(1.00761 0.00896878 0)
(1.00753 0.00902921 0)
(1.00721 0.00946305 0)
(1.00028 0.00163667 0)
(1.00129 0.00296365 0)
(1.00307 7.56753e-05 0)
(0.999908 0.00194065 0)
(0.999999 0.00538175 0)
(1.00255 0.00374455 0)
(1.0025 0.00246561 0)
(1.00078 0.00468259 0)
(1.0022 0.0047512 0)
(1.00272 0.00369331 0)
(1.00106 0.00516861 0)
(1.00107 0.00735506 0)
(1.00318 0.00739024 0)
(1.00416 0.00732146 0)
(1.00349 0.00845839 0)
(1.00397 0.00961813 0)
(1.0058 0.00940356 0)
(1.00751 0.00882882 0)
(1.00769 0.00871586 0)
(1.00742 0.0090475 0)
(1.00031 0.00141271 0)
(1.00101 0.00292821 0)
(1.00285 0.000473385 0)
(1.00023 0.00175023 0)
(1.0001 0.00505248 0)
(1.00227 0.00399504 0)
(1.00258 0.002642 0)
(1.00104 0.00451944 0)
(1.00212 0.00490711 0)
(1.00278 0.00403586 0)
(1.00158 0.00507968 0)
(1.00145 0.00708881 0)
(1.00322 0.00736814 0)
(1.00435 0.00725934 0)
(1.00396 0.00804452 0)
(1.00423 0.00913863 0)
(1.0057 0.0091641 0)
(1.00738 0.00869108 0)
(1.00779 0.00844743 0)
(1.00761 0.00867862 0)
(1.00034 0.00122318 0)
(1.00076 0.00284234 0)
(1.00262 0.000852713 0)
(1.0005 0.0016422 0)
(1.00024 0.00469302 0)
(1.00203 0.00418753 0)
(1.00261 0.0028581 0)
(1.0013 0.00438367 0)
(1.00209 0.00499487 0)
(1.00282 0.00434296 0)
(1.00202 0.00504081 0)
(1.00184 0.00682235 0)
(1.00329 0.00728221 0)
(1.00449 0.00721114 0)
(1.00435 0.00771771 0)
(1.00454 0.00867103 0)
(1.00567 0.00885862 0)
(1.00724 0.00853546 0)
(1.00782 0.00821553 0)
(1.00778 0.00833954 0)
(1.00037 0.00106669 0)
(1.00055 0.00272355 0)
(1.00238 0.00118615 0)
(1.00072 0.00160864 0)
(1.00042 0.00433678 0)
(1.00184 0.0042958 0)
(1.00261 0.00308992 0)
(1.00155 0.00429076 0)
(1.00211 0.00502477 0)
(1.00285 0.00460719 0)
(1.0024 0.00503994 0)
(1.00223 0.0065627 0)
(1.0034 0.00714271 0)
(1.0046 0.00715143 0)
(1.00467 0.00745929 0)
(1.00484 0.00824886 0)
(1.00572 0.00851059 0)
(1.00713 0.00833767 0)
(1.0078 0.00801225 0)
(1.00791 0.00802406 0)
(1.00039 0.000940091 0)
(1.00037 0.00258048 0)
(1.00215 0.00147138 0)
(1.0009 0.00164492 0)
(1.00062 0.00400815 0)
(1.0017 0.00433137 0)
(1.0026 0.00331063 0)
(1.00179 0.00423636 0)
(1.00217 0.00501496 0)
(1.00287 0.00481338 0)
(1.0027 0.00506333 0)
(1.00261 0.00632189 0)
(1.00356 0.00696079 0)
(1.00469 0.00706576 0)
(1.00493 0.00724593 0)
(1.00513 0.00788065 0)
(1.00581 0.00815606 0)
(1.00705 0.00809039 0)
(1.00775 0.0078154 0)
(1.008 0.007748 0)
(1.00041 0.000837843 0)
(1.00023 0.00242889 0)
(1.00194 0.00170255 0)
(1.00104 0.00173103 0)
(1.00083 0.00371932 0)
(1.00161 0.0043128 0)
(1.00257 0.00349421 0)
(1.002 0.00420199 0)
(1.00227 0.00497809 0)
(1.00289 0.00496747 0)
(1.00295 0.00509941 0)
(1.00297 0.00611012 0)
(1.00374 0.0067415 0)
(1.00478 0.00694917 0)
(1.00514 0.00705741 0)
(1.00539 0.00755406 0)
(1.00592 0.00781355 0)
(1.00702 0.00781387 0)
(1.0077 0.00759589 0)
(1.00803 0.0075123 0)
(1.00042 0.000759846 0)
(1.00013 0.00227956 0)
(1.00175 0.00188151 0)
(1.00113 0.00184366 0)
(1.00103 0.00348234 0)
(1.00157 0.00424552 0)
(1.00254 0.003636 0)
(1.00219 0.00417974 0)
(1.00239 0.00491471 0)
(1.00293 0.00507517 0)
(1.00315 0.00514224 0)
(1.00328 0.00593205 0)
(1.00396 0.00650476 0)
(1.00489 0.00679217 0)
(1.00531 0.00687571 0)
(1.00562 0.0072645 0)
(1.00605 0.00749448 0)
(1.00702 0.00754172 0)
(1.00767 0.00734919 0)
(1.00803 0.0072921 0)
(1.00043 0.000695845 0)
(1.00004 0.00214648 0)
(1.00157 0.00202102 0)
(1.0012 0.00196568 0)
(1.00123 0.00329681 0)
(1.00156 0.00415008 0)
(1.00251 0.00374087 0)
(1.00236 0.00415824 0)
(1.00254 0.00482856 0)
(1.00299 0.00513172 0)
(1.00331 0.00518132 0)
(1.00356 0.00578316 0)
(1.00417 0.0062691 0)
(1.00501 0.00659382 0)
(1.00547 0.00668648 0)
(1.00582 0.00699862 0)
(1.00619 0.00719268 0)
(1.00703 0.00727808 0)
(1.00765 0.00709079 0)
(1.00803 0.00705573 0)
(1.00044 0.00064659 0)
(0.999981 0.0020283 0)
(1.00143 0.00212435 0)
(1.00124 0.00208715 0)
(1.0014 0.00314933 0)
(1.00159 0.00404143 0)
(1.00249 0.00381096 0)
(1.0025 0.0041321 0)
(1.0027 0.00472536 0)
(1.00306 0.00513731 0)
(1.00344 0.00520796 0)
(1.00378 0.0056633 0)
(1.00438 0.00604447 0)
(1.00515 0.00637943 0)
(1.00561 0.00648165 0)
(1.006 0.00674545 0)
(1.00633 0.00689759 0)
(1.00705 0.00701654 0)
(1.00763 0.00684725 0)
(1.00803 0.00680092 0)
(1.00044 0.000611884 0)
(0.999939 0.00192055 0)
(1.0013 0.00219085 0)
(1.00126 0.00219772 0)
(1.00156 0.00302624 0)
(1.00164 0.00392673 0)
(1.00247 0.00385314 0)
(1.00261 0.00411253 0)
(1.00287 0.00460722 0)
(1.00317 0.00509794 0)
(1.00355 0.00521126 0)
(1.00396 0.00556949 0)
(1.00456 0.00583868 0)
(1.00529 0.00615406 0)
(1.00575 0.00626012 0)
(1.00616 0.00649994 0)
(1.00647 0.00660917 0)
(1.00709 0.00674882 0)
(1.00761 0.00662065 0)
(1.00803 0.0065446 0)
(1.00044 0.0005845 0)
(0.999911 0.00182432 0)
(1.00119 0.00222734 0)
(1.00126 0.00229553 0)
(1.0017 0.00293229 0)
(1.00171 0.0038057 0)
(1.00246 0.00387113 0)
(1.0027 0.00410362 0)
(1.00302 0.00448582 0)
(1.00329 0.00501365 0)
(1.00365 0.00517713 0)
(1.00409 0.00548635 0)
(1.00471 0.00565866 0)
(1.00543 0.00592337 0)
(1.00589 0.00602297 0)
(1.0063 0.00625186 0)
(1.0066 0.00633116 0)
(1.00715 0.00646471 0)
(1.00758 0.00638937 0)
(1.00801 0.00630367 0)
(1.00044 0.0005648 0)
(0.999895 0.0017398 0)
(1.00111 0.00223792 0)
(1.00124 0.00237816 0)
(1.00181 0.00286093 0)
(1.00179 0.00368134 0)
(1.00247 0.00386201 0)
(1.00277 0.0040944 0)
(1.00317 0.00437392 0)
(1.00342 0.00488842 0)
(1.00376 0.00510258 0)
(1.0042 0.00539813 0)
(1.00482 0.00550627 0)
(1.00554 0.00570903 0)
(1.00602 0.00577579 0)
(1.00643 0.00599326 0)
(1.00672 0.00606828 0)
(1.00723 0.00617418 0)
(1.00758 0.00614127 0)
(1.00797 0.00607851 0)
(1.00044 0.000548829 0)
(0.999887 0.00166593 0)
(1.00105 0.00222742 0)
(1.00122 0.00244104 0)
(1.0019 0.00280729 0)
(1.00188 0.00355787 0)
(1.00249 0.00382735 0)
(1.00281 0.00408158 0)
(1.00328 0.00428138 0)
(1.00356 0.00474225 0)
(1.00387 0.00498697 0)
(1.00429 0.00528822 0)
(1.00489 0.00536141 0)
(1.00561 0.00551709 0)
(1.00612 0.00553559 0)
(1.00656 0.00571743 0)
(1.00682 0.00580467 0)
(1.0073 0.00588879 0)
(1.0076 0.00586586 0)
(1.00793 0.00584572 0)
(1.00044 0.000536529 0)
(0.999886 0.00160018 0)
(1.001 0.00219894 0)
(1.00119 0.00248431 0)
(1.00196 0.00276654 0)
(1.00197 0.00343684 0)