/*--------------------------------*- C++ -*----------------------------------*\
| =========                 |                                                 |
| \\      /  F ield         | OpenFOAM: The Open Source CFD Toolbox           |
|  \\    /   O peration     | Version:  2506                                  |
|   \\  /    A nd           | Website:  www.openfoam.com                      |
|    \\/     M anipulation  |                                                 |
\*---------------------------------------------------------------------------*/
FoamFile
{
    version     2.0;
    format      ascii;
    arch        "LSB;label=32;scalar=64";
    class       surfaceScalarField;
    location    "7.85";
    object      phi;
}
// * * * * * * * * * * * * * * * * * * * * * * * * * * * * * * * * * * * * * //

dimensions      [0 3 -1 0 0 0 0];

oriented        oriented;

internalField   nonuniform List<scalar> 
19000
(
1.13285e-06
-3.9971e-07
1.15506e-06
1.1937e-06
1.16703e-06
-1.08869e-06
1.24729e-06
-1.40222e-06
1.2481e-06
-4.8327e-07
1.23162e-06
1.35599e-06
1.20334e-06
1.12157e-06
1.18459e-06
3.34232e-07
1.16135e-06
-4.34771e-07
1.1254e-06
-1.65772e-06
1.13873e-06
-9.14177e-07
1.11144e-06
-2.09665e-06
1.179e-06
-6.53047e-07
1.16151e-06
-1.19234e-06
1.20555e-06
-1.09711e-07
1.16219e-06
-3.20898e-07
1.1872e-06
3.89862e-07
1.14957e-06
2.48386e-07
1.15426e-06
3.57828e-07
3.30575e-07
1.12891e-06
1.19051e-06
-3.65962e-07
1.21511e-06
1.1691e-06
1.22136e-06
-1.09494e-06
1.29945e-06
-1.48031e-06
1.30411e-06
-4.87936e-07
1.29348e-06
1.36662e-06
1.26285e-06
1.15221e-06
1.24906e-06
3.48017e-07
1.22673e-06
-4.12438e-07
1.19127e-06
-1.62226e-06
1.19172e-06
-9.14631e-07
1.16224e-06
-2.06717e-06
1.21892e-06
-7.09724e-07
1.21105e-06
-1.18447e-06
1.24554e-06
-1.44208e-07
1.22549e-06
-3.00842e-07
1.22204e-06
3.93308e-07
1.2222e-06
2.48225e-07
1.18747e-06
3.92558e-07
3.06079e-07
1.21197e-06
1.25145e-06
-3.34628e-07
1.27201e-06
1.14854e-06
1.27051e-06
-1.09345e-06
1.34653e-06
-1.55633e-06
1.36236e-06
-5.03762e-07
1.3555e-06
1.37348e-06
1.33075e-06
1.17697e-06
1.31548e-06
3.63284e-07
1.29457e-06
-3.91532e-07
1.25971e-06
-1.5874e-06
1.25458e-06
-9.09503e-07
1.22974e-06
-2.04233e-06
1.26955e-06
-7.49525e-07
1.272e-06
-1.18693e-06
1.29784e-06
-1.70046e-07
1.29244e-06
-2.95436e-07
1.28253e-06
4.03216e-07
1.28663e-06
2.44126e-07
1.26816e-06
4.11021e-07
3.08475e-07
1.26577e-06
1.31546e-06
-3.05984e-07
1.32749e-06
1.13651e-06
1.31945e-06
-1.0854e-06
1.39095e-06
-1.62782e-06
1.42147e-06
-5.34288e-07
1.42022e-06
1.37472e-06
1.40313e-06
1.19406e-06
1.38702e-06
3.79389e-07
1.36509e-06
-3.69598e-07
1.3291e-06
-1.55141e-06
1.31859e-06
-8.98995e-07
1.29452e-06
-2.01826e-06
1.32235e-06
-7.77352e-07
1.33112e-06
-1.1957e-06
1.35553e-06
-1.94453e-07
1.35777e-06
-2.97686e-07
1.35654e-06
4.04448e-07
1.35599e-06
2.44678e-07
1.35552e-06
4.11489e-07
3.17225e-07
1.34677e-06
1.38352e-06
-2.81146e-07
1.38611e-06
1.13391e-06
1.37423e-06
-1.07352e-06
1.43662e-06
-1.69021e-06
1.48154e-06
-5.79207e-07
1.48978e-06
1.36648e-06
1.4787e-06
1.20513e-06
1.4613e-06
3.96794e-07
1.43766e-06
-3.45961e-07
1.40025e-06
-1.51399e-06
1.38782e-06
-8.86571e-07
1.3619e-06
-1.99234e-06
1.3802e-06
-7.9565e-07
1.38901e-06
-1.20451e-06
1.41402e-06
-2.19463e-07
1.41997e-06
-3.03629e-07
1.4304e-06
3.94012e-07
1.42918e-06
2.45903e-07
1.43934e-06
4.01326e-07
3.23619e-07
1.43295e-06
1.45634e-06
-2.61805e-07
1.45252e-06
1.13773e-06
1.4386e-06
-1.05961e-06
1.48708e-06
-1.73869e-06
1.54172e-06
-6.33843e-07
1.56226e-06
1.34595e-06
1.55533e-06
1.21206e-06
1.53703e-06
4.15091e-07
1.51172e-06
-3.20649e-07
1.47329e-06
-1.47557e-06
1.4598e-06
-8.73074e-07
1.43072e-06
-1.96327e-06
1.44319e-06
-8.0812e-07
1.4486e-06
-1.20992e-06
1.47365e-06
-2.4451e-07
1.48116e-06
-3.11136e-07
1.50181e-06
3.73363e-07
1.50297e-06
2.44739e-07
1.52141e-06
3.82885e-07
3.26842e-07
1.51819e-06
1.53342e-06
-2.49011e-07
1.52845e-06
1.1427e-06
1.51255e-06
-1.04371e-06
1.54382e-06
-1.76996e-06
1.60123e-06
-6.91246e-07
1.63384e-06
1.31333e-06
1.63076e-06
1.21514e-06
1.61331e-06
4.32546e-07
1.58747e-06
-2.94814e-07
1.54901e-06
-1.43711e-06
1.53474e-06
-8.58807e-07
1.50223e-06
-1.93076e-06
1.51156e-06
-8.17451e-07
1.51236e-06
-1.21072e-06
1.53709e-06
-2.6924e-07
1.54458e-06
-3.18626e-07
1.5737e-06
3.44248e-07
1.57807e-06
2.40364e-07
1.60386e-06
3.57095e-07
3.26684e-07
1.60402e-06
1.61348e-06
-2.42359e-07
1.61226e-06
1.14392e-06
1.59368e-06
-1.02514e-06
1.60664e-06
-1.78292e-06
1.66015e-06
-7.44761e-07
1.70228e-06
1.27121e-06
1.70412e-06
1.2133e-06
1.69018e-06
4.46485e-07
1.66514e-06
-2.69771e-07
1.62762e-06
-1.39958e-06
1.61248e-06
-8.43674e-07
1.57654e-06
-1.89481e-06
1.58476e-06
-8.25676e-07
1.58111e-06
-1.20707e-06
1.60631e-06
-2.94432e-07
1.61294e-06
-3.2526e-07
1.64916e-06
3.08032e-07
1.65666e-06
2.32859e-07
1.68834e-06
3.25419e-07
3.23129e-07
1.69189e-06
1.69547e-06
-2.40258e-07
1.70071e-06
1.13869e-06
1.67929e-06
-1.00372e-06
1.6748e-06
-1.77843e-06
1.71946e-06
-7.89422e-07
1.76796e-06
1.22271e-06
1.77625e-06
1.205e-06
1.76833e-06
4.54413e-07
1.74519e-06
-2.46632e-07
1.70943e-06
-1.36382e-06
1.69339e-06
-8.27642e-07
1.65406e-06
-1.85547e-06
1.66216e-06
-8.33782e-07
1.6546e-06
-1.19951e-06
1.6817e-06
-3.21533e-07
1.68758e-06
-3.31142e-07
1.72997e-06
2.65642e-07
1.74016e-06
2.22672e-07
1.77558e-06
2.89996e-07
3.16738e-07
1.78197e-06
1.77929e-06
-2.40823e-07
1.79115e-06
1.12683e-06
1.76754e-06
-9.80105e-07
1.74808e-06
-1.75897e-06
1.78096e-06
-8.22309e-07
1.83315e-06
1.17052e-06
1.84911e-06
1.18904e-06
1.84862e-06
4.54906e-07
1.82799e-06
-2.26002e-07
1.79442e-06
-1.33025e-06
1.7778e-06
-8.11025e-07
1.73536e-06
-1.81303e-06
1.74337e-06
-8.41798e-07
1.73206e-06
-1.1882e-06
1.76224e-06
-3.51705e-07
1.76802e-06
-3.36927e-07
1.81588e-06
2.17783e-07
1.82809e-06
2.10462e-07
1.86465e-06
2.53439e-07
3.08441e-07
1.87294e-06
1.86554e-06
-2.42613e-07
1.88261e-06
1.10975e-06
1.85779e-06
-9.55284e-07
1.82697e-06
-1.72815e-06
1.84735e-06
-8.42685e-07
1.90125e-06
1.11661e-06
1.92508e-06
1.16521e-06
1.9319e-06
4.48096e-07
1.91389e-06
-2.08e-07
1.88241e-06
-1.29876e-06
1.866e-06
-7.9462e-07
1.82101e-06
-1.76804e-06
1.82836e-06
-8.49149e-07
1.81288e-06
-1.17271e-06
1.84605e-06
-3.84879e-07
1.85209e-06
-3.42964e-07
1.90433e-06
1.65537e-07
1.91782e-06
1.96977e-07
1.95278e-06
2.18476e-07
2.99038e-07
1.96219e-06
1.95504e-06
-2.44811e-07
1.97556e-06
1.08923e-06
1.95031e-06
-9.30034e-07
1.91229e-06
-1.69013e-06
1.92162e-06
-8.52016e-07
1.97589e-06
1.06234e-06
2.00628e-06
1.13482e-06
2.01874e-06
4.3563e-07
2.00316e-06
-1.92417e-07
1.97319e-06
-1.26879e-06
1.95813e-06
-7.79554e-07
1.91127e-06
-1.72118e-06
1.91735e-06
-8.5523e-07
1.89691e-06
-1.15228e-06
1.93145e-06
-4.19422e-07
1.93706e-06
-3.48573e-07
1.9916e-06
1.11001e-07
2.00561e-06
1.82964e-07
2.03659e-06
1.87494e-07
2.8879e-07
2.04684e-06
2.04837e-06
-2.46996e-07
2.07098e-06
1.06662e-06
2.04582e-06
-9.04868e-07
2.00445e-06
-1.64876e-06
2.00571e-06
-8.53276e-07
2.05943e-06
1.00862e-06
2.09378e-06
1.10047e-06
2.10948e-06
4.19927e-07
2.09605e-06
-1.78983e-07
2.06682e-06
-1.23957e-06
2.05416e-06
-7.66891e-07
2.00601e-06
-1.67303e-06
2.01063e-06
-8.5985e-07
1.98466e-06
-1.12631e-06
2.01792e-06
-4.52682e-07
2.0214e-06
-3.52049e-07
2.07501e-06
5.73931e-08
2.08887e-06
1.69096e-07
2.11414e-06
1.62227e-07
2.7734e-07
2.12559e-06
2.14587e-06
-2.48861e-07
2.16978e-06
1.04271e-06
2.14512e-06
-8.80215e-07
2.10318e-06
-1.60681e-06
2.09934e-06
-8.49441e-07
2.15185e-06
9.56118e-07
2.18734e-06
1.06498e-06
2.20425e-06
4.03016e-07
2.19287e-06
-1.67602e-07
2.16371e-06
-1.21041e-06
2.15404e-06
-7.57219e-07
2.10495e-06
-1.62394e-06
2.10841e-06
-8.63306e-07
2.07701e-06
-1.09491e-06
2.10645e-06
-4.82129e-07
2.10587e-06
-3.51468e-07
2.15494e-06
8.32957e-09
2.16812e-06
1.55915e-07
2.18683e-06
1.43517e-07
2.64141e-07
2.20003e-06
2.24774e-06
-2.50112e-07
2.27258e-06
1.01787e-06
2.24886e-06
-8.56495e-07
2.20772e-06
-1.56567e-06
2.20047e-06
-8.42192e-07
2.25121e-06
9.05377e-07
2.28601e-06
1.03018e-06
2.30326e-06
3.8576e-07
2.29405e-06
-1.58391e-07
2.2646e-06
-1.18096e-06
2.25788e-06
-7.50498e-07
2.20796e-06
-1.57402e-06
2.21078e-06
-8.66118e-07
2.1748e-06
-1.05893e-06
2.199e-06
-5.06328e-07
2.19329e-06
-3.4576e-07
2.23494e-06
-3.33194e-08
2.24718e-06
1.43676e-07
2.25959e-06
1.3111e-07
2.49217e-07
2.27451e-06
2.35428e-06
-2.50514e-07
2.37994e-06
9.922e-07
2.35741e-06
-8.33959e-07
2.31739e-06
-1.52565e-06
2.30695e-06
-8.31753e-07
2.35553e-06
8.56797e-07
2.38916e-06
9.96553e-07
2.40696e-06
3.67955e-07
2.40008e-06
-1.51509e-07
2.37027e-06
-1.15115e-06
2.366e-06
-7.4623e-07
2.31521e-06
-1.52323e-06
2.31777e-06
-8.68684e-07
2.27853e-06
-1.01969e-06
2.29738e-06
-5.25172e-07
2.28688e-06
-3.35264e-07
2.31978e-06
-6.62185e-08
2.33125e-06
1.32207e-07
2.33834e-06
1.24019e-07
2.33213e-07
2.35434e-06
2.46584e-06
-2.49959e-07
2.49236e-06
9.65681e-07
2.47094e-06
-8.12536e-07
2.43187e-06
-1.48658e-06
2.41783e-06
-8.17709e-07
2.46414e-06
8.1048e-07
2.49703e-06
9.63666e-07
2.51595e-06
3.49034e-07
2.51143e-06
-1.46981e-07
2.48128e-06
-1.12101e-06
2.47883e-06
-7.43777e-07
2.4271e-06
-1.4715e-06
2.42952e-06
-8.71109e-07
2.38831e-06
-9.78483e-07
2.40249e-06
-5.39345e-07
2.38869e-06
-3.21465e-07
2.41301e-06
-9.05346e-08
2.42427e-06
1.2094e-07
2.42728e-06
1.21015e-07
2.17002e-07
2.44349e-06
2.5828e-06
-2.48463e-07
2.61026e-06
9.38215e-07
2.58958e-06
-7.91851e-07
2.55124e-06
-1.44825e-06
2.53338e-06
-7.99846e-07
2.57768e-06
7.66181e-07
2.61043e-06
9.3091e-07
2.6308e-06
3.28668e-07
2.62847e-06
-1.44651e-07
2.59797e-06
-1.09051e-06
2.59677e-06
-7.42575e-07
2.54413e-06
-1.41886e-06
2.54626e-06
-8.73237e-07
2.50413e-06
-9.36357e-07
2.51439e-06
-5.49607e-07
2.49922e-06
-3.06299e-07
2.51593e-06
-1.07242e-07
2.52772e-06
1.09155e-07
2.52798e-06
1.20754e-07
2.01443e-07
2.54354e-06
2.70547e-06
-2.46106e-07
2.73398e-06
9.09706e-07
2.7135e-06
-7.71369e-07
2.67578e-06
-1.41052e-06
2.65437e-06
-7.7844e-07
2.69714e-06
7.23414e-07
2.73019e-06
8.97857e-07
2.75192e-06
3.06941e-07
2.75152e-06
-1.44251e-07
2.72055e-06
-1.05954e-06
2.72016e-06
-7.42195e-07
2.66673e-06
-1.36542e-06
2.66826e-06
-8.74772e-07
2.62604e-06
-8.94131e-07
2.63283e-06
-5.56399e-07
2.61802e-06
-2.91489e-07
2.62826e-06
-1.17483e-07
2.64106e-06
9.63523e-08
2.63997e-06
1.21842e-07
1.87249e-07
2.65417e-06
2.83415e-06
-2.42985e-07
2.86377e-06
8.80079e-07
2.84296e-06
-7.50551e-07
2.8058e-06
-1.37337e-06
2.78147e-06
-7.54111e-07
2.82327e-06
6.81619e-07
2.85684e-06
8.64284e-07
2.87956e-06
2.84226e-07
2.8808e-06
-1.45495e-07
2.84919e-06
-1.02792e-06
2.84928e-06
-7.42286e-07
2.79527e-06
-1.31141e-06
2.79585e-06
-8.75351e-07
2.75422e-06
-8.52502e-07
2.75766e-06
-5.59834e-07
2.74446e-06
-2.78293e-07
2.74929e-06
-1.22313e-07
2.76314e-06
8.25042e-08
2.76201e-06
1.22972e-07
1.74893e-07
2.77437e-06
2.96909e-06
-2.39183e-07
2.99989e-06
8.49281e-07
2.97828e-06
-7.28936e-07
2.94167e-06
-1.33677e-06
2.91515e-06
-7.27586e-07
2.95646e-06
6.40308e-07
2.99068e-06
8.30068e-07
3.0139e-06
2.61004e-07
3.01653e-06
-1.48125e-07
2.98413e-06
-9.95523e-07
2.98437e-06
-7.42523e-07
2.9301e-06
-1.25715e-06
2.92934e-06
-8.74591e-07
2.88895e-06
-8.12109e-07
2.88898e-06
-5.59869e-07
2.87816e-06
-2.67474e-07
2.87868e-06
-1.2283e-07
2.89309e-06
6.80952e-08
2.89296e-06
1.23096e-07
1.64543e-07
2.90331e-06
3.11058e-06
-2.34757e-07
3.14259e-06
8.17276e-07
3.11983e-06
-7.06184e-07
3.08376e-06
-1.30069e-06
3.05572e-06
-6.99544e-07
3.09688e-06
5.99146e-07
3.13184e-06
7.95107e-07
3.15509e-06
2.37757e-07
3.15889e-06
-1.51924e-07
3.12563e-06
-9.62272e-07
3.12568e-06
-7.42569e-07
3.07153e-06
-1.203e-06
3.06903e-06
-8.72091e-07
3.03045e-06
-7.7353e-07
3.02703e-06
-5.56448e-07
3.01894e-06
-2.59381e-07
3.01628e-06
-1.20174e-07
3.03052e-06
5.38616e-08
3.03211e-06
1.21498e-07
1.56078e-07
3.04058e-06
3.2589e-06
-2.29743e-07
3.29213e-06
7.84043e-07
3.26803e-06
-6.82085e-07
3.23245e-06
-1.26511e-06
3.20346e-06
-6.70554e-07
3.24461e-06
5.57992e-07
3.28042e-06
7.593e-07
3.30327e-06
2.14911e-07
3.30805e-06
-1.56711e-07
3.274e-06
-9.28218e-07
3.27351e-06
-7.42077e-07
3.21989e-06
-1.14938e-06
3.21526e-06
-8.67466e-07
3.17897e-06
-7.37242e-07
3.17212e-06
-5.49592e-07
3.16674e-06
-2.53998e-07
3.16205e-06
-1.15485e-07
3.1754e-06
4.05068e-08
3.17906e-06
1.1784e-07
1.49132e-07
3.186e-06
3.41434e-06
-2.24156e-07
3.4488e-06
7.49587e-07
3.42328e-06
-6.56567e-07
3.38815e-06
-1.22998e-06
3.35866e-06
-6.4106e-07
3.39974e-06
5.16904e-07
3.43651e-06
7.2253e-07
3.45863e-06
1.92794e-07
3.46425e-06
-1.62335e-07
3.42954e-06
-8.93509e-07
3.42817e-06
-7.40703e-07
3.3755e-06
-1.09671e-06
3.36839e-06
-8.60357e-07
3.33474e-06
-7.03589e-07
3.32458e-06
-5.39427e-07
3.32162e-06
-2.51038e-07
3.31594e-06
-1.09807e-07
3.32786e-06
2.85827e-08
3.3336e-06
1.12102e-07
1.43211e-07
3.33952e-06
3.57725e-06
-2.17997e-07
3.6129e-06
7.13941e-07
3.58601e-06
-6.29681e-07
3.55127e-06
-1.19524e-06
3.5216e-06
-6.11391e-07
3.56239e-06
4.76109e-07
3.60025e-06
6.84676e-07
3.62142e-06
1.7162e-07
3.62774e-06
-1.68656e-07
3.59262e-06
-8.58387e-07
3.59003e-06
-7.38116e-07
3.5387e-06
-1.04538e-06
3.52882e-06
-8.50472e-07
3.49798e-06
-6.72748e-07
3.48482e-06
-5.26269e-07
3.48374e-06
-2.49958e-07
3.47797e-06
-1.04038e-07
3.48814e-06
1.84138e-08
3.49571e-06
1.04534e-07
1.37787e-07
3.50113e-06
3.74797e-06
-2.11262e-07
3.78475e-06
6.77167e-07
3.75664e-06
-6.01578e-07
3.72221e-06
-1.1608e-06
3.69261e-06
-5.81791e-07
3.73276e-06
4.35959e-07
3.77181e-06
6.45626e-07
3.79195e-06
1.51484e-07
3.79883e-06
-1.7554e-07
3.76359e-06
-8.23146e-07
3.75949e-06
-7.34018e-07
3.70981e-06
-9.95698e-07
3.69696e-06
-8.3762e-07
3.66892e-06
-6.4471e-07
3.65322e-06
-5.10567e-07
3.65334e-06
-2.50081e-07
3.64824e-06
-9.89339e-08
3.65651e-06
1.01467e-08
3.66549e-06
9.55534e-08
1.32349e-07
3.67093e-06
3.92687e-06
-2.03947e-07
3.96469e-06
6.39351e-07
3.93559e-06
-5.72483e-07
3.90137e-06
-1.12658e-06
3.87204e-06
-5.52459e-07
3.91113e-06
3.96864e-07
3.95146e-06
6.05296e-07
3.97057e-06
1.32379e-07
3.97786e-06
-1.82837e-07
3.94283e-06
-7.88115e-07
3.93698e-06
-7.2816e-07
3.88917e-06
-9.47888e-07
3.87328e-06
-8.21734e-07
3.84785e-06
-6.19279e-07
3.83017e-06
-4.92889e-07
3.83078e-06
-2.5069e-07
3.82688e-06
-9.50347e-08
3.83335e-06
3.67819e-09
3.84318e-06
8.57226e-08
1.26451e-07
3.84908e-06
4.11436e-06
-1.96052e-07
4.1531e-06
6.00609e-07
4.12327e-06
-5.4266e-07
4.08913e-06
-1.09244e-06
4.06027e-06
-5.23594e-07
4.09792e-06
3.59212e-07
4.13953e-06
5.63688e-07
4.15768e-06
1.14223e-07
4.16523e-06
-1.9038e-07
4.13073e-06
-7.53624e-07
4.12293e-06
-7.20361e-07
4.07711e-06
-9.02063e-07
4.05823e-06
-8.02854e-07
4.0351e-06
-5.96153e-07
4.01599e-06
-4.73773e-07
4.01647e-06
-2.51169e-07
4.01406e-06
-9.26301e-08
4.01901e-06
-1.26821e-09
4.02914e-06
7.55934e-08
1.19805e-07
4.03578e-06
4.31084e-06
-1.87588e-07
4.35036e-06
5.61087e-07
4.3201e-06
-5.12399e-07
4.2859e-06
-1.05824e-06
4.25772e-06
-4.95417e-07
4.29362e-06
3.23314e-07
4.33638e-06
5.20924e-07
4.35372e-06
9.68899e-08
4.36131e-06
-1.97972e-07
4.32766e-06
-7.19976e-07
4.31783e-06
-7.10531e-07
4.274e-06
-8.58233e-07
4.25228e-06
-7.81134e-07
4.23108e-06
-5.74951e-07
4.21103e-06
-4.53722e-07
4.21083e-06
-2.50974e-07
4.21e-06
-9.17951e-08
4.21382e-06
-5.09312e-09
4.22378e-06
6.56396e-08
1.123e-07
4.23128e-06
4.51677e-06
-1.78579e-07
4.55688e-06
5.20972e-07
4.52649e-06
-4.82004e-07
4.49206e-06
-1.02381e-06
4.46482e-06
-4.6818e-07
4.49875e-06
2.89388e-07
4.54244e-06
4.7723e-07
4.55911e-06
8.02184e-08
4.56653e-06
-2.05395e-07
4.53399e-06
-6.87437e-07
4.52211e-06
-6.98651e-07
4.48024e-06
-8.1636e-07
4.45588e-06
-7.56772e-07
4.43624e-06
-5.55311e-07
4.41567e-06
-4.33153e-07
4.41432e-06
-2.49622e-07
4.41499e-06
-9.2466e-08
4.41818e-06
-8.28566e-09
4.42754e-06
5.6277e-08
1.03961e-07
4.43588e-06
4.73261e-06
-1.6907e-07
4.77309e-06
4.80483e-07
4.74286e-06
-4.51774e-07
4.70805e-06
-9.88993e-07
4.68201e-06
-4.42144e-07
4.71383e-06
2.57574e-07
4.75815e-06
4.32908e-07
4.77433e-06
6.40375e-08
4.78134e-06
-2.12408e-07
4.75012e-06
-6.56217e-07
4.73626e-06
-6.84786e-07
4.69626e-06
-7.76363e-07
4.66959e-06
-7.30104e-07
4.65107e-06
-5.3679e-07
4.63049e-06
-4.12576e-07
4.62763e-06
-2.46758e-07
4.62947e-06
-9.43e-08
4.63252e-06
-1.13372e-08
4.64101e-06
4.77852e-08
9.49702e-08
4.65e-06
4.95884e-06
-1.59116e-07
4.99945e-06
4.39876e-07
4.96967e-06
-4.21995e-07
4.93432e-06
-9.53644e-07
4.90976e-06
-4.17581e-07
4.9394e-06
2.2794e-07
4.98398e-06
3.88325e-07
4.99985e-06
4.81668e-08
5.00621e-06
-2.18772e-07
4.97645e-06
-6.26454e-07
4.96073e-06
-6.69069e-07
4.92252e-06
-7.38152e-07
4.89393e-06
-7.01513e-07
4.87612e-06
-5.18982e-07
4.856e-06
-3.9245e-07
4.85156e-06
-2.42321e-07
4.85408e-06
-9.68188e-08
4.85727e-06
-1.45276e-08
4.86482e-06
4.02277e-08
8.56542e-08
4.87414e-06
5.19599e-06
-1.48787e-07
5.23644e-06
3.99426e-07
5.20737e-06
-3.92925e-07
5.17138e-06
-9.1766e-07
5.14853e-06
-3.94726e-07
5.17599e-06
2.00481e-07
5.22042e-06
3.43892e-07
5.23616e-06
3.24295e-08
5.24168e-06
-2.24293e-07
5.21341e-06
-5.98184e-07
5.19605e-06
-6.51709e-07
5.15952e-06
-7.01619e-07
5.12941e-06
-6.71411e-07
5.11198e-06
-5.01546e-07
5.09267e-06
-3.73144e-07
5.08674e-06
-2.36391e-07
5.08946e-06
-9.95318e-08
5.09295e-06
-1.8025e-08
5.09964e-06
3.35364e-08
7.63798e-08
5.10892e-06
5.44456e-06
-1.3816e-07
5.48457e-06
3.59418e-07
5.45641e-06
-3.6477e-07
5.41975e-06
-8.81e-07
5.3988e-06
-3.73773e-07
5.42414e-06
1.75142e-07
5.46801e-06
3.00025e-07
5.48378e-06
1.66605e-08
5.4883e-06
-2.28815e-07
5.46147e-06
-5.71359e-07
5.44274e-06
-6.32981e-07
5.40777e-06
-6.66643e-07
5.37658e-06
-6.4022e-07
5.35921e-06
-4.84177e-07
5.34098e-06
-3.54917e-07
5.33382e-06
-2.29225e-07
5.33626e-06
-1.01977e-07
5.34007e-06
-2.18382e-08
5.34611e-06
2.75042e-08
6.74536e-08
5.35503e-06
5.70511e-06
-1.27314e-07
5.7444e-06
3.20129e-07
5.71731e-06
-3.37678e-07
5.67999e-06
-8.43685e-07
5.66111e-06
-3.54887e-07
5.68441e-06
1.51835e-07
5.7273e-06
2.57134e-07
5.74324e-06
7.22603e-10
5.74667e-06
-2.3224e-07
5.72117e-06
-5.45857e-07
5.70135e-06
-6.1316e-07
5.66786e-06
-6.33152e-07
5.63595e-06
-6.08316e-07
5.61841e-06
-4.66635e-07
5.60141e-06
-3.37922e-07
5.59332e-06
-2.21136e-07
5.59513e-06
-1.03786e-07
5.59918e-06
-2.58808e-08
5.60481e-06
2.18712e-08
5.91122e-08
5.61315e-06
5.97821e-06
-1.16333e-07
6.01653e-06
2.81807e-07
5.99057e-06
-3.11712e-07
5.9527e-06
-8.05815e-07
5.93599e-06
-3.3818e-07
5.95739e-06
1.3044e-07
5.99892e-06
2.15605e-07
6.0151e-06
-1.54633e-08
6.01741e-06
-2.34553e-07
5.99307e-06
-5.21515e-07
5.97241e-06
-5.92501e-07
5.94037e-06
-6.01108e-07
5.90811e-06
-5.76054e-07
5.8902e-06
-4.48732e-07
5.8745e-06
-3.22221e-07
5.8658e-06
-2.12433e-07
5.86674e-06
-1.04723e-07
5.87085e-06
-2.99942e-08
5.87628e-06
1.64421e-08
5.13995e-08
5.88399e-06
6.26446e-06
-1.05305e-07
6.30161e-06
2.44659e-07
6.27674e-06
-2.8684e-07
6.23852e-06
-7.67595e-07
6.22401e-06
-3.23675e-07
6.24366e-06
1.10789e-07
6.28344e-06
1.75826e-07
6.29992e-06
-3.19456e-08
6.30117e-06
-2.35795e-07
6.27781e-06
-4.98153e-07
6.25653e-06
-5.71222e-07
6.22593e-06
-5.70509e-07
6.19361e-06
-5.43734e-07
6.17525e-06
-4.30375e-07
6.16078e-06
-3.07746e-07
6.15183e-06
-2.03486e-07
6.15176e-06
-1.04651e-07
6.15569e-06
-3.39244e-08
6.16103e-06
1.1101e-08
4.422e-08
6.16821e-06
6.56449e-06
-9.43242e-08
6.60028e-06
2.08867e-07
6.57648e-06
-2.63042e-07
6.53815e-06
-7.29263e-07
6.52574e-06
-3.11269e-07
6.54382e-06
9.27122e-08
6.58149e-06
1.38155e-07
6.59831e-06
-4.876e-08
6.59859e-06
-2.36079e-07
6.57602e-06
-4.75582e-07
6.55431e-06
-5.49512e-07
6.52514e-06
-5.41338e-07
6.49306e-06
-5.1166e-07
6.47419e-06
-4.11502e-07
6.46085e-06
-2.94403e-07
6.45198e-06
-1.94613e-07
6.45089e-06
-1.03566e-07
6.45438e-06
-3.74159e-08
6.45967e-06
5.81091e-09
3.74627e-08
6.46643e-06
6.87896e-06
-8.34979e-08
6.91321e-06
1.74622e-07
6.8907e-06
-2.4053e-07
6.85232e-06
-6.90886e-07
6.84185e-06
-3.00799e-07
6.85851e-06
7.60578e-08
6.89368e-06
1.02977e-07
6.91084e-06
-6.59118e-08
6.91036e-06
-2.35599e-07
6.88841e-06
-4.53633e-07
6.86639e-06
-5.27497e-07
6.83862e-06
-5.13565e-07
6.80711e-06
-4.80149e-07
6.78767e-06
-3.92062e-07
6.7753e-06
-2.82037e-07
6.76678e-06
-1.86091e-07
6.76484e-06
-1.01625e-07
6.76769e-06
-4.02637e-08
6.7728e-06
7.00295e-10
3.09522e-08
6.77931e-06
7.2086e-06
-7.29586e-08
7.24104e-06
1.42176e-07
7.22019e-06
-2.19673e-07
7.18157e-06
-6.52271e-07
7.17298e-06
-2.92204e-07
7.18849e-06
6.05482e-08
7.22074e-06
7.07255e-08
7.23811e-06
-8.329e-08
7.23716e-06
-2.34641e-07
7.2157e-06
-4.32174e-07
7.19344e-06
-5.0524e-07
7.167e-06
-4.87126e-07
7.13634e-06
-4.49486e-07
7.11636e-06
-3.72084e-07
7.10472e-06
-2.70401e-07
7.09686e-06
-1.78224e-07
7.09424e-06
-9.90083e-08
7.09634e-06
-4.23663e-08
7.1011e-06
-4.06147e-09
2.45711e-08
7.10749e-06
7.55412e-06
-6.28544e-08
7.58445e-06
1.11849e-07
7.56572e-06
-2.00948e-07
7.5265e-06
-6.13047e-07
7.51975e-06
-2.85456e-07
7.53451e-06
4.57922e-08
7.56347e-06
4.17646e-08
7.58079e-06
-1.00615e-07
7.57965e-06
-2.33498e-07
7.55865e-06
-4.1117e-07
7.53617e-06
-4.82761e-07
7.51091e-06
-4.61872e-07
7.48137e-06
-4.19944e-07
7.46094e-06
-3.51658e-07
7.44978e-06
-2.59238e-07
7.44275e-06
-1.71197e-07
7.43975e-06
-9.60072e-08
7.44111e-06
-4.37187e-08
7.44537e-06
-8.32313e-09
1.83987e-08
7.45154e-06
7.9163e-06
-5.33424e-08
7.94414e-06
8.40056e-08
7.92806e-06
-1.84868e-07
7.88797e-06
-5.72956e-07
7.88274e-06
-2.80224e-07
7.89731e-06
3.12236e-08
7.92279e-06
1.62841e-08
7.93954e-06
-1.17363e-07
7.93851e-06
-2.32471e-07
7.91796e-06
-3.90619e-07
7.89527e-06
-4.60075e-07
7.87099e-06
-4.37588e-07
7.84276e-06
-3.91711e-07
7.82206e-06
-3.30964e-07
7.81114e-06
-2.4831e-07
7.805e-06
-1.65066e-07
7.80204e-06
-9.30437e-08
7.8027e-06
-4.4378e-08
7.8064e-06
-1.20189e-08
1.2686e-08
7.81211e-06
8.29592e-06
-4.45769e-08
8.32088e-06
5.9042e-08
8.30788e-06
-1.71864e-07
8.26692e-06
-5.32002e-07
8.26262e-06
-2.75919e-07
8.27754e-06
1.63022e-08
8.29959e-06
-5.76443e-09
8.31506e-06
-1.32836e-07
8.31434e-06
-2.31748e-07
8.29434e-06
-3.70623e-07
8.2714e-06
-4.37132e-07
8.2479e-06
-4.14093e-07
8.22109e-06
-3.64896e-07
8.20043e-06
-3.10309e-07
8.1895e-06
-2.37375e-07
8.18426e-06
-1.59829e-07
8.1817e-06
-9.04874e-08
8.18184e-06
-4.45167e-08
8.18495e-06
-1.51304e-08
7.52726e-09
8.19011e-06
8.69377e-06
-3.66863e-08
8.71547e-06
3.73384e-08
8.70569e-06
-1.62076e-07
8.66435e-06
-4.90661e-07
8.66016e-06
-2.71735e-07
8.67579e-06
6.7423e-10
8.69461e-06
-2.45901e-08
8.70822e-06
-1.46444e-07
8.70772e-06
-2.31245e-07
8.68834e-06
-3.51245e-07
8.66513e-06
-4.13923e-07
8.6423e-06
-3.91257e-07
8.61712e-06
-3.39717e-07
8.59684e-06
-2.90034e-07
8.58577e-06
-2.263e-07
8.58124e-06
-1.553e-07
8.57938e-06
-8.86299e-08
8.57929e-06
-4.44279e-08
8.58186e-06
-1.7696e-08
2.94861e-09
8.58644e-06
9.11069e-06
-2.97598e-08
9.12887e-06
1.91628e-08
9.12202e-06
-1.5523e-07
9.08126e-06
-4.49895e-07
9.07625e-06
-2.6673e-07
9.09255e-06
-1.56189e-08
9.10871e-06
-4.07516e-08
9.11992e-06
-1.57654e-07
9.11926e-06
-2.30589e-07
9.10053e-06
-3.32518e-07
9.07717e-06
-3.90563e-07
9.05503e-06
-3.69109e-07
9.0318e-06
-3.16487e-07
9.01224e-06
-2.70482e-07
9.00099e-06
-2.15047e-07
8.99681e-06
-1.51123e-07
8.99586e-06
-8.7678e-08
8.99583e-06
-4.43923e-08
8.99789e-06
-1.97575e-08
-1.1672e-09
9.002e-06
9.54751e-06
-2.38146e-08
9.56228e-06
4.39926e-09
9.55761e-06
-1.5056e-07
9.51883e-06
-4.11119e-07
9.51192e-06
-2.59818e-07
9.52839e-06
-3.20843e-08
9.54253e-06
-5.48991e-08
9.55106e-06
-1.66182e-07
9.54979e-06
-2.29314e-07
9.53199e-06
-3.14718e-07
9.50863e-06
-3.67211e-07
9.48739e-06
-3.47869e-07
9.46627e-06
-2.95362e-07
9.44768e-06
-2.5189e-07
9.43627e-06
-2.03641e-07
9.43208e-06
-1.46935e-07
9.43197e-06
-8.75651e-08
9.4322e-06
-4.46208e-08
9.43392e-06
-2.14814e-08
-4.90092e-09
9.43766e-06
1.00051e-05
-1.879e-08
1.00169e-05
-7.40648e-09
1.00134e-05
-1.47042e-07
9.97797e-06
-3.75687e-07
9.9687e-06
-2.50552e-07
9.98421e-06
-4.75908e-08
9.99678e-06
-6.74708e-08
1.00027e-05
-1.72113e-07
1.00008e-05
-2.27368e-07
9.98388e-06
-2.97834e-07
9.96092e-06
-3.44248e-07
9.94079e-06
-3.27747e-07
9.92162e-06
-2.76187e-07
9.90419e-06
-2.34465e-07
9.89274e-06
-1.92185e-07
9.88823e-06
-1.42424e-07
9.88864e-06
-8.79741e-08
9.88945e-06
-4.54387e-08
9.89085e-06
-2.28754e-08
-8.35367e-09
9.8943e-06
1.04844e-05
-1.45801e-08
1.04939e-05
-1.68761e-08
1.04905e-05
-1.43634e-07
1.04592e-05
-3.44388e-07
1.0448e-05
-2.39341e-07
1.04617e-05
-6.12639e-08
1.04728e-05
-7.86249e-08
1.04765e-05
-1.75767e-07
1.04736e-05
-2.24486e-07
1.04576e-05
-2.81838e-07
1.04356e-05
-3.22259e-07
1.04163e-05
-3.08405e-07
1.03989e-05
-2.58884e-07
1.03828e-05
-2.18304e-07
1.03715e-05
-1.80867e-07
1.03665e-05
-1.37447e-07
1.03669e-05
-8.84143e-08
1.03685e-05
-4.70226e-08
1.03697e-05
-2.40982e-08
-1.14075e-08
1.03728e-05
1.09865e-05
-1.10332e-08
1.09942e-05
-2.46442e-08
1.09902e-05
-1.39578e-07
1.0963e-05
-3.17226e-07
1.0951e-05
-2.27303e-07
1.09623e-05
-7.2582e-08
1.09721e-05
-8.8426e-08
1.09738e-05
-1.77472e-07
1.09698e-05
-2.2046e-07
1.09547e-05
-2.66761e-07
1.09336e-05
-3.01198e-07
1.0915e-05
-2.89739e-07
1.08993e-05
-2.43198e-07
1.08845e-05
-2.03537e-07
1.08735e-05
-1.69847e-07
1.08681e-05
-1.32036e-07
1.08681e-05
-8.83943e-08
1.08703e-05
-4.92908e-08
1.08717e-05
-2.54794e-08
-1.39492e-08
1.08743e-05
1.15123e-05
-7.97175e-09
1.15189e-05
-3.12463e-08
1.15138e-05
-1.34512e-07
1.14903e-05
-2.93684e-07
1.14786e-05
-2.15612e-07
1.14874e-05
-8.13908e-08
1.14955e-05
-9.65362e-08
1.14958e-05
-1.77767e-07
1.1491e-05
-2.15612e-07
1.14765e-05
-2.52295e-07
1.14561e-05
-2.8081e-07
1.14381e-05
-2.71689e-07
1.14237e-05
-2.28835e-07
1.14104e-05
-1.90241e-07
1.13999e-05
-1.593e-07
1.13942e-05
-1.26344e-07
1.13935e-05
-8.77031e-08
1.1396e-05
-5.17644e-08
1.13979e-05
-2.74121e-08
-1.59457e-08
1.13999e-05
1.20631e-05
-5.22825e-09
1.20689e-05
-3.70377e-08
1.20629e-05
-1.285e-07
1.20421e-05
-2.729e-07
1.20318e-05
-2.05304e-07
1.20382e-05
-8.7841e-08
1.2044e-05
-1.02337e-07
1.20433e-05
-1.77063e-07
1.20381e-05
-2.10411e-07
1.20241e-05
-2.38267e-07
1.20043e-05
-2.61034e-07
1.19866e-05
-2.54019e-07
1.19733e-05
-2.15515e-07
1.19615e-05
-1.78425e-07
1.19516e-05
-1.4942e-07
1.19458e-05
-1.2051e-07
1.19445e-05
-8.6409e-08
1.19466e-05
-5.38933e-08
1.19492e-05
-2.99465e-08
-1.77848e-08
1.1951e-05
1.264e-05
-2.64316e-09
1.26453e-05
-4.22834e-08
1.26385e-05
-1.21779e-07
1.26195e-05
-2.53875e-07
1.26113e-05
-1.97063e-07
1.26159e-05
-9.244e-08
1.26189e-05
-1.05375e-07
1.26171e-05
-1.75309e-07
1.26119e-05
-2.05144e-07
1.25985e-05
-2.24901e-07
1.25795e-05
-2.42036e-07
1.25619e-05
-2.36444e-07
1.25494e-05
-2.0298e-07
1.25389e-05
-1.67913e-07
1.25299e-05
-1.40419e-07
1.25241e-05
-1.14722e-07
1.25224e-05
-8.46613e-08
1.25238e-05
-5.53693e-08
1.25267e-05
-3.2811e-08
-1.97832e-08
1.25287e-05
1.32444e-05
-6.49842e-11
1.32493e-05
-4.72126e-08
1.32421e-05
-1.14592e-07
1.3224e-05
-2.35824e-07
1.32179e-05
-1.90928e-07
1.32214e-05
-9.59444e-08
1.32217e-05
-1.05636e-07
1.32182e-05
-1.71871e-07
1.32131e-05
-1.99971e-07
1.32009e-05
-2.12778e-07
1.31829e-05
-2.23958e-07
1.31654e-05
-2.19013e-07
1.31532e-05
-1.90749e-07
1.31438e-05
-1.58544e-07
1.31358e-05
-1.32359e-07
1.31302e-05
-1.09143e-07
1.31282e-05
-8.26465e-08
1.31291e-05
-5.62727e-08
1.31317e-05
-3.54707e-08
-2.21971e-08
1.31342e-05
1.38775e-05
2.60584e-09
1.38823e-05
-5.20351e-08
1.38749e-05
-1.07127e-07
1.38573e-05
-2.1828e-07
1.38527e-05
-1.86312e-07
1.38558e-05
-9.90197e-08
1.38534e-05
-1.03294e-07
1.38477e-05
-1.6611e-07
1.38427e-05
-1.94971e-07
1.38323e-05
-2.02414e-07
1.38156e-05
-2.07232e-07
1.37986e-05
-2.02018e-07
1.37862e-05
-1.78391e-07
1.37777e-05
-1.50014e-07
1.37705e-05
-1.2519e-07
1.37653e-05
-1.03922e-07
1.37632e-05
-8.05298e-08
1.37637e-05
-5.67689e-08
1.37658e-05
-3.75877e-08
-2.49062e-08
1.37685e-05
1.45409e-05
5.39628e-09
1.45451e-05
-5.62821e-08
1.45379e-05
-9.99278e-08
1.45211e-05
-2.01493e-07
1.45167e-05
-1.81924e-07
1.45195e-05
-1.01794e-07
1.45153e-05
-9.90624e-08
1.45074e-05
-1.58175e-07
1.45018e-05
-1.89457e-07
1.44934e-05
-1.93932e-07
1.44789e-05
-1.92766e-07
1.44625e-05
-1.85599e-07
1.445e-05
-1.65938e-07
1.44417e-05
-1.41725e-07
1.44355e-05
-1.18992e-07
1.44307e-05
-9.911e-08
1.44286e-05
-7.84022e-08
1.44289e-05
-5.70833e-08
1.44305e-05
-3.9205e-08
-2.74961e-08
1.44331e-05
1.52361e-05
8.21007e-09
1.5239e-05
-5.92593e-08
1.52338e-05
-9.47033e-08
1.5217e-05
-1.84654e-07
1.52106e-05
-1.75581e-07
1.52135e-05
-1.04634e-07
1.52091e-05
-9.46877e-08
1.51997e-05
-1.48759e-07
1.51926e-05
-1.82388e-07
1.51855e-05
-1.86812e-07
1.51737e-05
-1.80999e-07
1.51586e-05
-1.70434e-07
1.51461e-05
-1.53509e-07
1.51377e-05
-1.33264e-07
1.51321e-05
-1.13433e-07
1.51279e-05
-9.48466e-08
1.51257e-05
-7.62643e-08
1.5126e-05
-5.73358e-08
1.51273e-05
-4.05351e-08
-2.96534e-08
1.51295e-05
1.59647e-05
1.08077e-08
1.59744e-05
-6.89174e-08
1.59675e-05
-8.77748e-08
1.59446e-05
-1.6177e-07
1.59358e-05
-1.66778e-07
1.594e-05
-1.08816e-07
1.59367e-05
-9.14258e-08
1.59261e-05
-1.38187e-07
1.59172e-05
-1.73509e-07
1.59103e-05
-1.79857e-07
1.5901e-05
-1.71684e-07
1.58881e-05
-1.57581e-07
1.58759e-05
-1.41336e-07
1.58673e-05
-1.24661e-07
1.58619e-05
-1.07964e-07
1.58583e-05
-9.12575e-08
1.58562e-05
-7.41591e-08
1.58563e-05
-5.74829e-08
1.58577e-05
-4.18735e-08
-3.13027e-08
1.58593e-05
1.67278e-05
1.36291e-08
1.67225e-05
-6.3639e-08
1.6718e-05
-8.32499e-08
1.67024e-05
-1.46206e-07
1.66948e-05
-1.59209e-07
1.67008e-05
-1.14741e-07
1.66995e-05
-9.01411e-08
1.66882e-05
-1.26909e-07
1.66778e-05
-1.63117e-07
1.66699e-05
-1.71955e-07
1.66622e-05
-1.64006e-07
1.6652e-05
-1.47347e-07
1.66409e-05
-1.30197e-07
1.66322e-05
-1.15956e-07
1.66265e-05
-1.02346e-07
1.66232e-05
-8.7965e-08
1.66215e-05
-7.23784e-08
1.66213e-05
-5.73642e-08
1.66228e-05
-4.33486e-08
-3.271e-08
1.66242e-05
1.7528e-05
1.59512e-08
1.75283e-05
-6.39406e-08
1.75207e-05
-7.56189e-08
1.75019e-05
-1.27389e-07
1.7491e-05
-1.48289e-07
1.74968e-05
-1.20608e-07
1.74981e-05
-9.1437e-08
1.74874e-05
-1.16158e-07
1.74757e-05
-1.51397e-07
1.74665e-05
-1.62839e-07
1.74595e-05
-1.56987e-07
1.74515e-05
-1.39316e-07
1.74424e-05
-1.21076e-07
1.74338e-05
-1.07377e-07
1.74281e-05
-9.66602e-08
1.74247e-05
-8.45609e-08
1.74233e-05
-7.09706e-08
1.7423e-05
-5.70166e-08
1.74243e-05
-4.47316e-08
-3.42258e-08
1.74259e-05
1.83665e-05
1.78225e-08
1.83616e-05
-5.91155e-08
1.83568e-05
-7.08115e-08
1.83411e-05
-1.11607e-07
1.83275e-05
-1.34761e-07