/*--------------------------------*- C++ -*----------------------------------*\
| =========                 |                                                 |
| \\      /  F ield         | OpenFOAM: The Open Source CFD Toolbox           |
|  \\    /   O peration     | Version:  2506                                  |
|   \\  /    A nd           | Website:  www.openfoam.com                      |
|    \\/     M anipulation  |                                                 |
\*---------------------------------------------------------------------------*/
FoamFile
{
    version     2.0;
    format      ascii;
    arch        "LSB;label=32;scalar=64";
    class       volScalarField;
    location    "4.45";
    object      p;
}
// * * * * * * * * * * * * * * * * * * * * * * * * * * * * * * * * * * * * * //

dimensions      [0 2 -2 0 0 0 0];

internalField   nonuniform List<scalar> 
9600
(
-1.80991e-10
-0.00496244
-0.0018954
-0.00151732
-0.000193476
0.00245924
-0.0014622
-0.00735251
-0.00530083
-0.00245045
-0.00447859
-0.00376862
-0.00252807
-0.0034431
-0.00171335
-0.00216996
0.000273013
0.000561086
0.00352454
0.00775426
1.78965e-06
-0.00496328
-0.00189797
-0.00152256
-0.000184283
0.00242864
-0.00144583
-0.00734435
-0.00531171
-0.00242087
-0.00448798
-0.00377928
-0.00251748
-0.00345866
-0.00171425
-0.00224141
0.000277558
0.000427185
0.00357191
0.00724257
3.92247e-06
-0.00496486
-0.00190105
-0.00152722
-0.000177081
0.00238593
-0.00141108
-0.00732978
-0.00531926
-0.00238659
-0.00451196
-0.00379234
-0.00250609
-0.00348513
-0.00173379
-0.00231164
0.000270233
0.000312827
0.00357554
0.00659356
3.96326e-06
-0.00496738
-0.00190314
-0.0015323
-0.000177936
0.00232416
-0.00138576
-0.00730386
-0.00531928
-0.00237534
-0.00454191
-0.00380725
-0.00250088
-0.00351731
-0.00176019
-0.0023787
0.000249366
0.000214061
0.00350263
0.0060555
1.46162e-06
-0.00497065
-0.00190428
-0.00153898
-0.000185525
0.00224038
-0.00137523
-0.00726151
-0.00531169
-0.00238731
-0.00457201
-0.00382658
-0.00250021
-0.00355194
-0.00178357
-0.00245205
0.000229169
0.000111399
0.00339683
0.00558198
-3.3632e-06
-0.00497449
-0.00190471
-0.0015477
-0.000199226
0.00213373
-0.00137438
-0.00720238
-0.00529977
-0.00241576
-0.00460205
-0.003849
-0.00250302
-0.00358702
-0.00180481
-0.00253062
0.000207422
1.07305e-05
0.00326402
0.00514018
-1.03537e-05
-0.00497861
-0.00190428
-0.0015588
-0.000219196
0.00200716
-0.00137795
-0.00713001
-0.0052875
-0.00245379
-0.00463281
-0.00387226
-0.00250723
-0.00362261
-0.00182521
-0.00261151
0.000176937
-8.21685e-05
0.0030928
0.00472316
-1.93559e-05
-0.00498265
-0.00190291
-0.0015727
-0.000245032
0.00186493
-0.00138313
-0.00704784
-0.00527705
-0.00249545
-0.00466491
-0.00389577
-0.00251004
-0.00366077
-0.00184583
-0.00269139
0.000134121
-0.000163751
0.00287859
0.00432937
-3.01299e-05
-0.00498633
-0.00190067
-0.00158963
-0.000275985
0.00171099
-0.00138814
-0.00695832
-0.00526866
-0.00253714
-0.004699
-0.00392005
-0.00251044
-0.00370369
-0.00186846
-0.00276582
7.64316e-05
-0.000230368
0.00262082
0.00395387
-4.23932e-05
-0.00498955
-0.00189781
-0.00160959
-0.000311301
0.0015486
-0.00139199
-0.00686338
-0.00526183
-0.00257698
-0.00473553
-0.00394614
-0.00250884
-0.00375183
-0.00189493
-0.00283106
8.98782e-07
-0.000285241
0.00232126
0.00359003
-5.5884e-05
-0.00499238
-0.0018947
-0.00163244
-0.000350261
0.00138029
-0.00139462
-0.00676468
-0.00525619
-0.00261404
-0.00477474
-0.00397486
-0.00250558
-0.00380441
-0.00192705
-0.00288481
-9.56755e-05
-0.00033382
0.00198474
0.00323337
-7.03922e-05
-0.00499504
-0.00189176
-0.0016579
-0.000392248
0.00120794
-0.0013966
-0.00666373
-0.00525197
-0.00264794
-0.00481669
-0.00400668
-0.00250087
-0.00386019
-0.00196681
-0.00292636
-0.000215472
-0.000378214
0.00161776
0.00286207
-8.57741e-05
-0.0049979
-0.00188949
-0.00168563
-0.00043686
0.00103281
-0.00139868
-0.00656172
-0.00524984
-0.00267858
-0.00486146
-0.00404233
-0.00249523
-0.00391765
-0.00201639
-0.00295606
-0.000359251
-0.000422659
0.00122705
0.00247491
-0.00010196
-0.0050013
-0.00188836
-0.00171523
-0.000483914
0.000855687
-0.00140168
-0.00645943
-0.0052507
-0.0027059
-0.00490916
-0.00408304
-0.00248938
-0.00397513
-0.00207821
-0.00297458
-0.000526987
-0.000472976
0.000820486
0.00206696
-0.000118947
-0.00500552
-0.00188883
-0.0017463
-0.000533374
0.000676984
-0.00140644
-0.00635732
-0.00525535
-0.00272988
-0.00496004
-0.00413015
-0.00248414
-0.0040311
-0.00215473
-0.00298338
-0.0007165
-0.000535916
0.000405499
0.00163477
-0.000136784
-0.00501067
-0.00189131
-0.00177835
-0.00058534
0.000496913
-0.00141389
-0.00625566
-0.00526428
-0.00275067
-0.00501431
-0.00418461
-0.00248033
-0.00408426
-0.00224776
-0.00298561
-0.000924419
-0.000617848
-1.15662e-05
0.001178
-0.00015556
-0.00501669
-0.00189612
-0.00181092
-0.00064002
0.000315711
-0.00142488
-0.00615464
-0.00527793
-0.00276839
-0.00507163
-0.00424702
-0.00247879
-0.00413361
-0.00235786
-0.00298593
-0.00114832
-0.000723718
-0.000424216
0.000697796
-0.000175401
-0.00502336
-0.00190356
-0.00184365
-0.000697741
0.00013377
-0.00144023
-0.00605443
-0.00529674
-0.00278309
-0.00513117
-0.00431773
-0.00248028
-0.00417886
-0.00248433
-0.00298877
-0.00138589
-0.00085587
-0.000827347
0.00019516
-0.000196467
-0.00503042
-0.0019139
-0.00187625
-0.000758959
-4.83674e-05
-0.00146064
-0.00595512
-0.00532105
-0.00279505
-0.0051917
-0.00439706
-0.00248529
-0.00422038
-0.00262596
-0.00299751
-0.0016349
-0.00101584
-0.00121735
-0.000327781
-0.000218952
-0.00503759
-0.00192746
-0.00190855
-0.000824194
-0.000230071
-0.00148682
-0.00585667
-0.00535125
-0.00280468
-0.00525183
-0.00448562
-0.00249386
-0.00425926
-0.0027818
-0.00301419
-0.00189372
-0.00120488
-0.00159112
-0.00086786
-0.000243077
-0.00504461
-0.00194457
-0.00194045
-0.00089402
-0.000410648
-0.00151947
-0.005759
-0.00538767
-0.00281252
-0.00531005
-0.00458451
-0.00250572
-0.00429645
-0.00295145
-0.00304042
-0.002161
-0.0014234
-0.00194591
-0.00142138
-0.000269081
-0.00505123
-0.00196561
-0.00197184
-0.000969061
-0.000589408
-0.0015593
-0.00566211
-0.00543046
-0.00281946
-0.0053647
-0.00469515
-0.00252072
-0.00433196
-0.00313561
-0.00307729
-0.00243523
-0.00167258
-0.002279
-0.00198233
-0.000297216
-0.00505723
-0.00199101
-0.00200257
-0.00104993
-0.000765699
-0.00160706
-0.00556601
-0.00547954
-0.00282686
-0.00541375
-0.00481915
-0.00253939
-0.00436541
-0.00333539
-0.00312437
-0.00271411
-0.00195595
-0.00258967
-0.00254116
-0.000327741
-0.00506241
-0.00202125
-0.00203249
-0.00113721
-0.000938904
-0.00166347
-0.00547076
-0.00553463
-0.00283642
-0.0054548
-0.00495806
-0.00256354
-0.00439545
-0.00355137
-0.00318183
-0.00299414
-0.0022772
-0.00287999
-0.00308518
-0.000360925
-0.00506655
-0.00205688
-0.00206137
-0.0012315
-0.00110859
-0.00172896
-0.00537666
-0.00559531
-0.00285025
-0.00548517
-0.00511266
-0.00259598
-0.00441943
-0.00378461
-0.0032526
-0.0032699
-0.00263841
-0.0031558
-0.00359863
-0.000397062
-0.00506943
-0.00209843
-0.00208902
-0.00133335
-0.00127447
-0.00180389
-0.00528371
-0.00566064
-0.00287124
-0.00550247
-0.00528278
-0.00263992
-0.00443447
-0.00403678
-0.00334213
-0.00353292
-0.0030393
-0.00342996
-0.00406425
-0.000436456
-0.00507084
-0.00214649
-0.00211528
-0.00144319
-0.00143625
-0.00188837
-0.00519412
-0.00572907
-0.00290237
-0.00550552
-0.00546697
-0.00269904
-0.00443884
-0.00430782
-0.0034567
-0.00377546
-0.0034759
-0.00371964
-0.00446912
-0.00047944
-0.00507056
-0.00220165
-0.00213993
-0.00156135
-0.00159388
-0.00198228
-0.00510933
-0.00579868
-0.0029466
-0.00549403
-0.00566242
-0.00277823
-0.00443098
-0.00459447
-0.00360384
-0.00399299
-0.00393857
-0.00404278
-0.00481068
-0.000526382
-0.00506835
-0.00226454
-0.00216282
-0.001688
-0.00174766
-0.00208547
-0.00502984
-0.00586692
-0.00300712
-0.00546807
-0.00586565
-0.00288353
-0.00440972
-0.00489141
-0.00379246
-0.00418348
-0.00441123
-0.00441612
-0.00509862
-0.000577639
-0.00506398
-0.00233577
-0.00218395
-0.00182309
-0.00189814
-0.00219686
-0.00495774
-0.00593157
-0.00308604
-0.00542909
-0.00607202
-0.00301998
-0.00437686
-0.00519162
-0.00402969
-0.00435142
-0.00487379
-0.00484802
-0.00535647
-0.000633583
-0.00505719
-0.00241596
-0.00220347
-0.00196627
-0.00204612
-0.00231464
-0.00489596
-0.00599117
-0.00318417
-0.00538028
-0.00627631
-0.00319079
-0.00433637
-0.00548689
-0.00431879
-0.00450715
-0.00530678
-0.00533551
-0.00561863
-0.000694659
-0.00504768
-0.00250559
-0.00222164
-0.00211693
-0.00219277
-0.00243676
-0.00484678
-0.00604489
-0.00330198
-0.00532585
-0.00647339
-0.00339802
-0.00429384
-0.00576878
-0.00465965
-0.00466342
-0.00569483
-0.00586665
-0.00592238
-0.000761341
-0.00503518
-0.00260509
-0.00223891
-0.00227409
-0.00233993
-0.00256046
-0.00481212
-0.00609333
-0.00343864
-0.0052704
-0.00665937
-0.00364179
-0.00425678
-0.00602889
-0.00504816
-0.00483595
-0.00602839
-0.00641957
-0.00629557
-0.00083409
-0.00501933
-0.00271487
-0.00225606
-0.00243612
-0.00248998
-0.0026831
-0.00479308
-0.00613831
-0.00359192
-0.00521906
-0.0068318
-0.00391968
-0.00423322
-0.0062602
-0.00547729
-0.00504055
-0.00630606
-0.00696662
-0.00674858
-0.000913375
-0.00499995
-0.00283506
-0.00227415
-0.00260098
-0.00264554
-0.00280282
-0.00478964
-0.00618222
-0.00375956
-0.00517657
-0.00698925
-0.00422888
-0.00423132
-0.00645737
-0.0059381
-0.00529029
-0.00653388
-0.00747954
-0.00727244
-0.000999702
-0.00497686
-0.00296559
-0.0022945
-0.00276616
-0.00280922
-0.00291853
-0.00480043
-0.00622809
-0.00393949
-0.00514608
-0.00713172
-0.0045664
-0.00425866
-0.00661791
-0.00641932
-0.00559405
-0.00672409
-0.00793564
-0.00784526
-0.00109358
-0.00494999
-0.00310622
-0.00231884
-0.00292859
-0.00298318
-0.00303034
-0.00482279
-0.00627927
-0.00413036
-0.00512977
-0.00725945
-0.00492811
-0.00432202
-0.00674294
-0.00690812
-0.0059556
-0.00689489
-0.00832427
-0.00843508
-0.00119545
-0.00491944
-0.00325632
-0.00234918
-0.00308517
-0.00317028
-0.00314017
-0.0048536
-0.00633859
-0.00433237
-0.00512853
-0.00737227
-0.00531062
-0.00442787
-0.00683456
-0.00739076
-0.00637667
-0.00706601
-0.00864391
-0.00900555
-0.00130571
-0.00488544
-0.00341581
-0.0023879
-0.00323293
-0.00336997
-0.00325114
-0.00488961
-0.00640814
-0.00454657
-0.00514286
-0.00747047
-0.00571081
-0.0045821
-0.00689569
-0.00785216
-0.00685701
-0.00725632
-0.0088983
-0.00952938
-0.0014246
-0.0048484
-0.00358105
-0.00243766
-0.00336934
-0.00358189
-0.003367
-0.00492725
-0.00648856
-0.00477472
-0.00517461
-0.00755335
-0.00612349
-0.00479101
-0.00693357
-0.00827554
-0.00738999
-0.00748558
-0.00909543
-0.00999178
-0.00155235
-0.00480885
-0.00375078
-0.00250129
-0.00349268
-0.00380434
-0.00349261
-0.00496388
-0.00657826
-0.00501948
-0.00522676
-0.00761934
-0.00654193
-0.00505992
-0.00696009
-0.00864392
-0.00796208
-0.00777508
-0.00924893
-0.0103821
-0.00168918
-0.00476743
-0.00392354
-0.00258143
-0.0036019
-0.00403498
-0.00363342
-0.00499835
-0.00667388
-0.00528296
-0.00530321
-0.00766813
-0.00695891
-0.00539086
-0.0069896
-0.00894523
-0.0085539
-0.00814166
-0.00938171
-0.0106926
-0.00183531
-0.00472508
-0.00409679
-0.00268086
-0.00369652
-0.00427004
-0.00379599
-0.00503132
-0.00677166
-0.00556626
-0.00540938
-0.00770057
-0.00736578
-0.00578166
-0.0070397
-0.00917567
-0.00913879
-0.00858923
-0.00952699
-0.0109244
-0.00199095
-0.00468277
-0.00426784
-0.00280242
-0.00377741
-0.00450346
-0.00398623
-0.00506608
-0.00686308
-0.00586803
-0.0055521
-0.00771955
-0.00775224
-0.00622556
-0.00712919
-0.00934047
-0.00968771
-0.00910729
-0.00972086
-0.0110934
-0.00215626
-0.00464184
-0.00443403
-0.00294825
-0.00384773
-0.00473024
-0.00420478
-0.0051083
-0.00694135
-0.00618349
-0.00573772
-0.00773253
-0.0081074
-0.0067108
-0.00727529
-0.00945411
-0.0101767
-0.00967459
-0.00998867
-0.0112277
-0.00233092
-0.00460213
-0.0045925
-0.00312023
-0.00391248
-0.00494273
-0.00445001
-0.00516778
-0.00700528
-0.00650401
-0.00596882
-0.00775036
-0.00842296
-0.00722258
-0.00749005
-0.00953775
-0.0105906
-0.0102631
-0.0103401
-0.0113646
-0.00251417
-0.00456961
-0.00474098
-0.00331909
-0.00397825
-0.00513467
-0.00471831
-0.0052549
-0.00705735
-0.00681988
-0.00624297
-0.00778505
-0.0086955
-0.0077447
-0.00777704
-0.00961584
-0.0109255
-0.0108422
-0.0107691
-0.0115394
-0.00270537
-0.00454519
-0.00487728
-0.003543
-0.00405354
-0.00530316
-0.00500273
-0.00537664
-0.00710219
-0.00712191
-0.006554
-0.00784813
-0.00892693
-0.00825996
-0.00813198
-0.00971487
-0.0111899
-0.0113821
-0.0112556
-0.0117761
-0.00290361
-0.00453175
-0.00499956
-0.00378842
-0.00414707
-0.00544826
-0.00529453
-0.00553536
-0.00714713
-0.00740423
-0.00689332
-0.00794876
-0.00912467
-0.00875336
-0.0085435
-0.00985615
-0.0114008
-0.0118611
-0.011771
-0.0120842
-0.00310739
-0.00453223
-0.00510741
-0.0040497
-0.00426659
-0.0055741
-0.00558414
-0.00572956
-0.00720182
-0.00766432
-0.00725099
-0.00809256
-0.00929947
-0.0092131
-0.00899607
-0.0100526
-0.0115801
-0.0122721
-0.0122851
-0.0124545
-0.00331512
-0.00454904
-0.00520215
-0.00431969
-0.0044174
-0.00568956
-0.00586361
-0.00595479
-0.007274
-0.00790198
-0.00761723
-0.00828136
-0.00946328
-0.0096318
-0.00947305
-0.0103097
-0.0117516
-0.0126215
-0.0127732
-0.0128635
-0.00352501
-0.00458379
-0.00528699
-0.00459105
-0.00460177
-0.00580645
-0.00612954
-0.00620252
-0.0073681
-0.00812047
-0.00798401
-0.00851275
-0.0096277
-0.0100071
-0.00995613
-0.0106246
-0.011937
-0.0129215
-0.0132229
-0.0132889
-0.00373547
-0.00463767
-0.00536617
-0.00485788
-0.00481845
-0.00593476
-0.00638183
-0.00646525
-0.00748607
-0.0083239
-0.00834473
-0.00878212
-0.00980397
-0.010342
-0.0104262
-0.0109861
-0.0121536
-0.0131879
-0.0136318
-0.0137162
-0.00394546
-0.00471123
-0.0054454
-0.00511621
-0.00506164
-0.00608094
-0.00662404
-0.00673832
-0.0076277
-0.00851601
-0.00869498
-0.00908337
-0.0100019
-0.0106457
-0.0108693
-0.0113767
-0.0124094
-0.0134381
-0.0139995
-0.014136
-0.00415435
-0.00480378
-0.00553042
-0.00536536
-0.00532312
-0.00624789
-0.00686159
-0.00701794
-0.0077919
-0.00870099
-0.00903074
-0.00940919
-0.0102282
-0.0109295
-0.0112795
-0.0117772
-0.0127006
-0.0136898
-0.0143292
-0.0145386
-0.00436218
-0.00491418
-0.00562559
-0.00560622
-0.00559507
-0.00643528
-0.00709956
-0.00730294
-0.00797801
-0.00888273
-0.00934767
-0.00975143
-0.0104871
-0.0112052
-0.0116586
-0.012172
-0.0130154
-0.0139542
-0.0146313
-0.0149143
-0.00456949
-0.00504074
-0.0057333
-0.00584112
-0.00587254
-0.00663877
-0.00734005
-0.00759583
-0.00818603
-0.00906458
-0.00964374
-0.0101004
-0.0107771
-0.0114847
-0.0120125
-0.0125528
-0.013341
-0.0142325
-0.0149201
-0.0152594
-0.00477723
-0.00518239
-0.00585423
-0.00607295
-0.00615311
-0.00685393
-0.00758361
-0.00789776
-0.00841818
-0.00925084
-0.00991875
-0.0104446
-0.0110906
-0.0117776
-0.0123508
-0.0129187
-0.0136671
-0.0145184
-0.0152062
-0.0155787
-0.00498681
-0.00533886
-0.00598759
-0.00630278
-0.00643581
-0.00707847
-0.00782782
-0.00820643
-0.00867703
-0.00944753
-0.0101741
-0.0107752
-0.0114182
-0.0120868
-0.012684
-0.0132727
-0.0139899
-0.0148034
-0.0154903
-0.0158814
-0.00519895
-0.00550897
-0.00613324
-0.00653112
-0.00672134
-0.00731235
-0.0080693
-0.00851878
-0.00896248
-0.00966229
-0.0104144
-0.0110864
-0.0117501
-0.0124086
-0.0130166
-0.0136193
-0.0143116
-0.0150843
-0.0157669
-0.0161744
-0.00541409
-0.00569184
-0.00629118
-0.00675824
-0.00701003
-0.00755665
-0.00830716
-0.00882793
-0.00927002
-0.00990242
-0.0106474
-0.0113741
-0.0120751
-0.0127386
-0.013351
-0.0139602
-0.0146342
-0.0153645
-0.0160322
-0.0164566
-0.00563262
-0.0058868
-0.00646149
-0.00698439
-0.0073007
-0.0078132
-0.00854384
-0.00912658
-0.00959205
-0.0101709
-0.0108846
-0.0116412
-0.0123822
-0.0130689
-0.0136889
-0.0142961
-0.0149556
-0.015649
-0.016289
-0.0167233
-0.00585479
-0.00609298
-0.00664445
-0.00720981
-0.00759144
-0.00808283
-0.00878277
-0.00941204
-0.00991829
-0.010464
-0.0111358
-0.0118961
-0.0126666
-0.0133855
-0.014027
-0.0146306
-0.0152728
-0.0159385
-0.0165449
-0.0169752
-0.00608068
-0.00630922
-0.00684028
-0.00743521
-0.00788029
-0.00836481
-0.00902854
-0.00968537
-0.010238
-0.0107744
-0.0114052
-0.0121482
-0.0129331
-0.0136793
-0.0143531
-0.0149642
-0.0155852
-0.0162282
-0.0168052
-0.0172185
-0.00631034
-0.00653454
-0.00704906
-0.00766182
-0.00816496
-0.00865614
-0.00928535
-0.00995065
-0.0105446
-0.0110921
-0.0116915
-0.0124035
-0.0131874
-0.0139517
-0.0146546
-0.0152888
-0.0158945
-0.0165119
-0.0170681
-0.0174601
-0.00654393
-0.00676738
-0.00727034
-0.00789167
-0.00844409
-0.00895264
-0.00955406
-0.0102129
-0.0108363
-0.0114059
-0.0119897
-0.0126657
-0.0134327
-0.0142074
-0.0149294
-0.0155903
-0.0161968
-0.0167865
-0.017324
-0.017699
-0.00678173
-0.00700655
-0.0075025
-0.00812634
-0.0087177
-0.00925097
-0.00983388
-0.010477
-0.0111155
-0.0117067
-0.0122909
-0.0129367
-0.0136715
-0.0144452
-0.0151822
-0.015863
-0.0164824
-0.0170521
-0.0175668
-0.0179277
-0.00702359
-0.00725045
-0.00774429
-0.0083675
-0.00898634
-0.00954691
-0.0101217
-0.0107467
-0.011387
-0.0119923
-0.0125825
-0.01321
-0.0139083
-0.0146629
-0.015409
-0.0161057
-0.0167436
-0.017309
-0.0178008
-0.0181468
-0.0072695
-0.00749839
-0.0079933
-0.00861596
-0.00925278
-0.00983814
-0.0104129
-0.0110211
-0.0116542
-0.0122663
-0.0128585
-0.0134742
-0.0141425
-0.014863
-0.0156018
-0.0163094
-0.0169658
-0.0175454
-0.0180278
-0.0183627
-0.00751918
-0.00775004
-0.00824701
-0.00887031
-0.00951882
-0.0101254
-0.0107051
-0.0112985
-0.0119182
-0.0125306
-0.0131211
-0.0137226
-0.0143663
-0.0150486
-0.0157605
-0.0164653
-0.0171304
-0.01773
-0.0182231
-0.0185622
-0.0077715
-0.00800297
-0.00850411
-0.00913003
-0.00978528
-0.0104076
-0.0109965
-0.0115796
-0.0121793
-0.0127823
-0.0133689
-0.0139547
-0.0145713
-0.0152182
-0.0158927
-0.0165775
-0.017234
-0.0178336
-0.0183378
-0.0186969
-0.00802647
-0.00825812
-0.00876127
-0.00939205
-0.0100535
-0.0106867
-0.0112855
-0.011865
-0.0124437
-0.0130219
-0.0135927
-0.0141601
-0.0147446
-0.0153543
-0.0159919
-0.0166491
-0.0172906
-0.0178784
-0.0183726
-0.0187236
-0.00828233
-0.00851515
-0.00901887
-0.00965298
-0.01032
-0.0109634
-0.0115717
-0.0121522
-0.01272
-0.0132704
-0.0138038
-0.0143309
-0.0148611
-0.0154191
-0.016014
-0.0166422
-0.0172851
-0.0178868
-0.0183924
-0.0187388
-0.00853555
-0.00876988
-0.00927725
-0.00991327
-0.0105806
-0.0112329
-0.0118561
-0.012441
-0.0130104
-0.0135572
-0.014049
-0.0144967
-0.014919
-0.0153461
-0.0158222
-0.016363
-0.0169751
-0.0176313
-0.0182923
-0.018871
-0.00878581
-0.00902267
-0.00953345
-0.0101715
-0.0108361
-0.0114867
-0.0121213
-0.0127262
-0.0133131
-0.013892
-0.0144354
-0.0148847
-0.0151976
-0.0154348
-0.0157083
-0.0160453
-0.0163595
-0.0165849
-0.016736
-0.0169023
-0.00903398
-0.00927318
-0.00978597
-0.0104228
-0.0110859
-0.0117271
-0.0123517
-0.0129661
-0.01354
-0.0139983
-0.0143416
-0.0146474
-0.014962
-0.0153048
-0.0156629
-0.01602
-0.0163641
-0.0167217
-0.0171017
-0.0175152
-0.00928409
-0.00951549
-0.0100249
-0.0106626
-0.0113336
-0.0119714
-0.0125343
-0.0130089
-0.0134521
-0.0138879
-0.0143257
-0.0147682
-0.0152186
-0.0156603
-0.0160381
-0.0163282
-0.0165389
-0.016658
-0.0167534
-0.0169289
-0.00954903
-0.00975263
-0.0102018
-0.0107654
-0.0113592
-0.0119308
-0.0124786
-0.0129994
-0.0135123
-0.0140091
-0.0144598
-0.0148934
-0.0153075
-0.0157042
-0.0161271
-0.0166108
-0.0172129
-0.0179189
-0.0186549
-0.0193137
-0.00982722
-0.0100477
-0.0104003
-0.0108529
-0.01138
-0.0119429
-0.0125338
-0.0131208
-0.0136793
-0.0141976
-0.0146476
-0.0150499
-0.0154532
-0.0158254
-0.0161436
-0.0163772
-0.0165336
-0.0166653
-0.01683
-0.0171164
-0.0100144
-0.0102222
-0.0105456
-0.0109516
-0.0114445
-0.0119912
-0.0125811
-0.0131864
-0.0137403
-0.0142314
-0.0146782
-0.0150894
-0.0155058
-0.0159035
-0.0162489
-0.0165565
-0.0168569
-0.0171854
-0.0175559
-0.0180042
0.0154119
0.00605708
-0.00567808
-0.0131058
-0.0156883
-0.0157526
-0.0153689
-0.0154655
-0.0161696
-0.0173108
-0.0186164
-0.0196746
-0.0203228
-0.0208383
-0.0214359
-0.0221003
-0.0228242
-0.0234981
-0.0239751
-0.024404
-0.0250142
-0.0257638
-0.0264866
-0.0271218
-0.0277164
-0.0283686
-0.0291204
-0.0298802
-0.0305544
-0.0312211
-0.0319845
-0.0328197
-0.0336742
-0.0345527
-0.0354483
-0.0363144
-0.0371084
-0.0378429
-0.0385581
-0.0393116
-0.0401327
-0.0409767
-0.0417981
-0.0426645
-0.0436138
-0.0445627
-0.0454744
-0.0463844
-0.0472975
-0.0482133
-0.0491578
-0.0501372
-0.0511385
-0.0521568
-0.0532021
-0.0542441
-0.0552933
-0.0563696
-0.0574593
-0.0585532
-0.0596983
-0.0608826
-0.0620577
-0.0632201
-0.0644068
-0.0656073
-0.0668249
-0.068093
-0.0694004
-0.0707191
-0.072056
-0.0734237
-0.0748227
-0.0762354
-0.0776627
-0.0790955
-0.0805822
-0.0821117
-0.0836792
-0.0852617
-0.0868633
-0.0884904
-0.0901345
-0.0918315
-0.0935437
-0.0953117
-0.0970828
-0.0989083
-0.100751
-0.102645
-0.104549
-0.106484
-0.108454
-0.110429
-0.112464
-0.114449
-0.116492
-0.118472
-0.120164
-0.121931
0.0139601
0.00591759
-0.00557945
-0.0129946
-0.0156189
-0.0157148
-0.0153419
-0.0154439
-0.0161527
-0.0172981
-0.0186076
-0.0196687
-0.0203184
-0.0208342
-0.021432
-0.0220964
-0.0228207
-0.0234954
-0.0239726
-0.0244012
-0.0250114
-0.0257613
-0.0264843
-0.0271197
-0.0277143
-0.0283664
-0.0291184
-0.0298785
-0.0305528
-0.0312194
-0.0319829
-0.0328182
-0.0336728
-0.0345514
-0.0354472
-0.0363134
-0.0371075
-0.037842
-0.0385573
-0.0393108
-0.0401319
-0.0409761
-0.0417975
-0.0426638
-0.0436132
-0.0445622
-0.045474
-0.0463839
-0.0472971
-0.0482129
-0.0491573
-0.0501368
-0.0511381
-0.0521564
-0.0532017
-0.0542438
-0.055293
-0.0563693
-0.0574591
-0.0585529
-0.059698
-0.0608823
-0.0620574
-0.0632198
-0.0644066
-0.0656071
-0.0668247
-0.0680928
-0.0694002
-0.0707189
-0.0720558
-0.0734235
-0.0748225
-0.0762352
-0.0776625
-0.0790954
-0.080582
-0.0821115
-0.0836791
-0.0852616
-0.0868632
-0.0884902
-0.0901344
-0.0918314
-0.0935436
-0.0953116
-0.0970827
-0.0989082
-0.100751
-0.102644
-0.104549
-0.106484
-0.108453
-0.110429
-0.112464
-0.114449
-0.116492
-0.118472
-0.120164
-0.121931
0.0128493
0.00590336
-0.0053288
-0.0127683
-0.0154987
-0.0156683
-0.0153222
-0.0154294
-0.0161383
-0.0172834
-0.0185937
-0.0196576
-0.0203108
-0.0208294
-0.0214286
-0.0220932
-0.0228174
-0.0234926
-0.0239701
-0.0243988
-0.0250091
-0.0257592
-0.0264824
-0.0271179
-0.0277125
-0.0283646
-0.0291167
-0.029877
-0.0305513
-0.0312179
-0.0319815
-0.0328168
-0.0336715
-0.0345502
-0.0354462
-0.0363126
-0.0371067
-0.0378412
-0.0385565
-0.03931
-0.0401312
-0.0409755
-0.0417969
-0.0426632
-0.0436127
-0.0445618
-0.0454736
-0.0463835
-0.0472967
-0.0482125
-0.049157
-0.0501364
-0.0511378
-0.0521561
-0.0532014
-0.0542435
-0.0552927
-0.056369
-0.0574588
-0.0585526
-0.0596977
-0.0608821
-0.0620572
-0.0632196
-0.0644064
-0.0656069
-0.0668245
-0.0680926
-0.0694
-0.0707187
-0.0720556
-0.0734233
-0.0748223
-0.0762351
-0.0776623
-0.0790952
-0.0805818
-0.0821114
-0.0836789
-0.0852614
-0.0868631
-0.0884901
-0.0901343
-0.0918312
-0.0935435
-0.0953115
-0.0970826
-0.0989081
-0.100751
-0.102644
-0.104549
-0.106484
-0.108453
-0.110429
-0.112464
-0.114449
-0.116492
-0.118472
-0.120164
-0.121931
0.0118097
0.00584453
-0.00504339
-0.0124953
-0.0153455
-0.0156118
-0.0153024
-0.0154144
-0.0161224
-0.0172659
-0.0185734
-0.0196369
-0.0202949
-0.0208203
-0.0214241
-0.0220896
-0.0228132
-0.0234882
-0.0239668
-0.0243966
-0.0250073
-0.0257571
-0.0264801
-0.027116
-0.027711
-0.0283631
-0.0291149
-0.0298752
-0.0305497
-0.0312164
-0.03198
-0.0328153
-0.03367
-0.034549
-0.0354452
-0.0363117
-0.0371059
-0.0378403
-0.0385555
-0.0393092
-0.0401305
-0.0409748
-0.0417963
-0.0426625
-0.0436122
-0.0445614
-0.0454731
-0.0463831
-0.0472963
-0.0482121
-0.0491566
-0.0501361
-0.0511375
-0.0521558
-0.0532011
-0.0542433
-0.0552924
-0.0563687
-0.0574585
-0.0585524
-0.0596974
-0.0608819
-0.062057
-0.0632194
-0.0644062
-0.0656067
-0.0668243
-0.0680924
-0.0693998
-0.0707185
-0.0720554
-0.0734231
-0.0748221
-0.0762349
-0.0776622
-0.0790951
-0.0805817
-0.0821112
-0.0836788
-0.0852613
-0.086863
-0.08849
-0.0901342
-0.0918311
-0.0935434
-0.0953114
-0.0970825
-0.098908
-0.100751
-0.102644
-0.104549
-0.106484
-0.108453
-0.110429
-0.112464
-0.114449
-0.116492
-0.118472
-0.120164
-0.121931
0.0107402
0.00569494
-0.00475741
-0.0122027
-0.0151788
-0.0155511
-0.0152831
-0.0153992
-0.0161055
-0.0172464
-0.0185467
-0.0196061
-0.0202692
-0.0208048
-0.0214165
-0.0220846
-0.0228069
-0.0234812
-0.0239617
-0.0243944
-0.0250059
-0.0257546
-0.026477
-0.0271138
-0.02771
-0.0283621
-0.0291131
-0.0298729
-0.0305478
-0.031215
-0.0319785
-0.0328135
-0.033668
-0.0345474
-0.0354441
-0.0363108
-0.0371048
-0.0378391
-0.0385544
-0.0393081
-0.0401295
-0.040974
-0.0417954
-0.0426617
-0.0436115
-0.0445609
-0.0454726
-0.0463827
-0.0472959
-0.0482117
-0.0491561
-0.0501356
-0.0511371
-0.0521554
-0.0532008
-0.0542429
-0.0552921
-0.0563684
-0.0574583
-0.0585521
-0.0596971
-0.0608816
-0.0620568
-0.0632192
-0.064406
-0.0656064
-0.066824
-0.0680921
-0.0693996
-0.0707183
-0.0720552
-0.0734229
-0.074822
-0.0762348
-0.077662
-0.0790949
-0.0805815
-0.0821111
-0.0836786
-0.0852612
-0.0868628
-0.0884899
-0.090134
-0.091831
-0.0935432
-0.0953113
-0.0970824
-0.0989079
-0.100751
-0.102644
-0.104549
-0.106484
-0.108453
-0.110429
-0.112464
-0.114449
-0.116492
-0.118472
-0.120164
-0.121931
0.00964816
0.00546501
-0.0044693
-0.0118914
-0.0150012
-0.0154877
-0.015265
-0.0153844
-0.0160879
-0.0172257
-0.0185169
-0.0195695
-0.0202372
-0.020784
-0.0214054
-0.0220771
-0.0227978
-0.0234709
-0.0239548
-0.0243923
-0.0250051
-0.0257516
-0.0264725
-0.0271108
-0.0277096
-0.0283621
-0.0291114
-0.02987
-0.0305456
-0.0312139
-0.0319773
-0.0328113
-0.0336655
-0.0345454
-0.0354427
-0.0363095
-0.0371033
-0.0378375
-0.0385529
-0.0393068
-0.0401283
-0.0409728
-0.0417943
-0.0426607
-0.0436107
-0.0445601
-0.045472
-0.0463821
-0.0472953
-0.0482111
-0.0491556
-0.0501352
-0.0511366
-0.052155
-0.0532004
-0.0542426
-0.0552917
-0.0563681
-0.0574579
-0.0585517
-0.0596968
-0.0608814
-0.0620566
-0.063219
-0.0644057
-0.0656062
-0.0668238
-0.0680919
-0.0693994
-0.0707181
-0.072055
-0.0734227
-0.0748218
-0.0762346
-0.0776619
-0.0790947
-0.0805813
-0.0821109
-0.0836785
-0.085261
-0.0868627
-0.0884897
-0.0901339
-0.0918309
-0.0935431
-0.0953112
-0.0970823
-0.0989078
-0.10075
-0.102644
-0.104548
-0.106484
-0.108453
-0.110429
-0.112464
-0.114449
-0.116492
-0.118472
-0.120164
-0.121931
0.00856059
0.00516602
-0.00418014
-0.0115615
-0.014813
-0.0154212
-0.0152483
-0.0153706
-0.0160695
-0.0172039
-0.018486
-0.0195312
-0.020203
-0.020761
-0.0213919
-0.022067
-0.0227856
-0.0234576
-0.0239463
-0.0243904
-0.0250047
-0.0257479
-0.0264665
-0.0271068
-0.0277093
-0.0283629
-0.0291098
-0.0298665
-0.0305431
-0.0312132
-0.0319765
-0.032809
-0.0336624
-0.0345428
-0.035441
-0.0363077
-0.0371011
-0.0378352
-0.038551
-0.0393053
-0.0401267
-0.0409711
-0.0417928
-0.0426594
-0.0436095
-0.0445591
-0.0454712
-0.0463814
-0.0472946
-0.0482103
-0.0491549
-0.0501346
-0.0511361
-0.0521545
-0.0531999
-0.0542421
-0.0552913
-0.0563677
-0.0574575
-0.0585513
-0.0596965
-0.0608811
-0.0620563
-0.0632187
-0.0644055
-0.0656059
-0.0668235
-0.0680916
-0.0693992
-0.0707179
-0.0720548
-0.0734225
-0.0748216
-0.0762344
-0.0776617
-0.0790945
-0.0805811
-0.0821107
-0.0836783
-0.0852609
-0.0868625
-0.0884896
-0.0901337
-0.0918307
-0.093543
-0.0953111
-0.0970822
-0.0989077
-0.10075
-0.102644
-0.104548
-0.106484
-0.108453
-0.110429
-0.112463
-0.114449
-0.116492
-0.118473
-0.120165
-0.121932
0.00749661
0.00479867
-0.00389979
-0.0112163
-0.0146139
-0.0153515
-0.0152333
-0.0153583
-0.0160505
-0.017181
-0.0184544
-0.0194924
-0.0201683
-0.0207372
-0.021377
-0.0220549
-0.0227709
-0.0234419
-0.0239367
-0.0243888
-0.0250049
-0.0257438
-0.026459
-0.0271014
-0.0277088
-0.0283641
-0.0291083
-0.0298626
-0.0305404
-0.0312128
-0.0319761
-0.0328067
-0.0336592
-0.0345402
-0.035439
-0.0363055
-0.0370981
-0.0378321
-0.0385486
-0.0393035
-0.0401249
-0.0409691
-0.0417911
-0.0426579
-0.043608
-0.0445577
-0.04547
-0.0463804
-0.0472937
-0.0482094
-0.0491541
-0.0501338
-0.0511354
-0.0521538
-0.0531993
-0.0542416
-0.0552908
-0.0563671
-0.057457
-0.0585509
-0.0596961
-0.0608807
-0.062056
-0.0632184
-0.0644052
-0.0656056
-0.0668232
-0.0680913
-0.0693989
-0.0707176
-0.0720545
-0.0734222
-0.0748213
-0.0762342
-0.0776615
-0.0790943
-0.0805808
-0.0821105
-0.0836781
-0.0852607
-0.0868623
-0.0884894
-0.0901335
-0.0918306
-0.0935428
-0.0953109
-0.097082
-0.0989075
-0.10075
-0.102644
-0.104548
-0.106484
-0.108453
-0.110428
-0.112463
-0.114449
-0.116492
-0.118473
-0.120166
-0.121932
0.00647041
0.00436346
-0.00363983
-0.0108588
-0.0144027
-0.015277
-0.0152194
-0.0153479
-0.016031
-0.0171572
-0.0184224
-0.0194532
-0.0201329
-0.0207127
-0.0213612
-0.0220415
-0.0227546
-0.0234245
-0.023926
-0.0243872
-0.0250055
-0.0257397
-0.0264508
-0.0270951
-0.0277078
-0.0283654
-0.0291069
-0.0298585
-0.0305376
-0.0312126
-0.0319759
-0.0328047
-0.0336561
-0.0345378
-0.0354372
-0.036303
-0.0370943
-0.0378279
-0.0385455
-0.0393014
-0.0401228
-0.0409669
-0.0417892
-0.0426562
-0.0436062
-0.0445559
-0.0454685
-0.0463792
-0.0472925
-0.0482082
-0.049153
-0.0501329
-0.0511345
-0.0521529
-0.0531985
-0.0542409
-0.0552901
-0.0563665
-0.0574564
-0.0585503
-0.0596956
-0.0608803
-0.0620557
-0.0632182
-0.0644049
-0.0656053
-0.0668228
-0.068091
-0.0693987
-0.0707174
-0.0720543
-0.073422
-0.0748211
-0.0762339
-0.0776612
-0.079094
-0.0805806
-0.0821102
-0.0836779
-0.0852605
-0.0868621
-0.0884892
-0.0901333
-0.0918304
-0.0935426
-0.0953107
-0.0970818
-0.0989074
-0.10075
-0.102644
-0.104548
-0.106484
-0.108453
-0.110428
-0.112463
-0.114449
-0.116492
-0.118474
-0.120167
-0.121933
0.0054949
0.00386466
-0.00341152
-0.0104926
-0.0141775
-0.0151957
-0.0152055
-0.0153396
-0.0160117
-0.0171323
-0.0183898
-0.0194134
-0.0200966
-0.0206872
-0.0213446
-0.0220273
-0.0227372
-0.0234059
-0.0239144
-0.0243853
-0.0250063
-0.0257356
-0.0264422
-0.027088
-0.0277062
-0.0283664
-0.0291054
-0.0298543
-0.0305347
-0.0312126
-0.0319759
-0.0328027
-0.0336534
-0.034536
-0.035436
-0.0363007
-0.03709
-0.0378227
-0.0385414
-0.0392987
-0.0401202
-0.0409644
-0.0417873
-0.0426547
-0.0436043
-0.0445538
-0.0454668
-0.0463777
-0.047291
-0.0482068
-0.0491517
-0.0501317
-0.0511334
-0.0521518
-0.0531974
-0.0542401
-0.0552894
-0.0563656
-0.0574555
-0.0585496
-0.0596949
-0.0608797
-0.0620552
-0.0632178
-0.0644045
-0.0656049