/*--------------------------------*- C++ -*----------------------------------*\
| =========                 |                                                 |
| \\      /  F ield         | OpenFOAM: The Open Source CFD Toolbox           |
|  \\    /   O peration     | Version:  2506                                  |
|   \\  /    A nd           | Website:  www.openfoam.com                      |
|    \\/     M anipulation  |                                                 |
\*---------------------------------------------------------------------------*/
FoamFile
{
    version     2.0;
    format      ascii;
    arch        "LSB;label=32;scalar=64";
    class       surfaceScalarField;
    location    "4.45";
    object      phi;
}
// * * * * * * * * * * * * * * * * * * * * * * * * * * * * * * * * * * * * * //

dimensions      [0 3 -1 0 0 0 0];

oriented        oriented;

internalField   nonuniform List<scalar> 
19000
(
1.18899e-06
1.61642e-06
1.16642e-06
-1.91603e-06
1.15289e-06
2.80229e-07
1.1438e-06
2.16244e-08
1.18559e-06
1.74649e-06
1.0632e-06
-1.66237e-06
1.15134e-06
1.19379e-06
1.13696e-06
-3.44143e-08
1.11982e-06
-1.01988e-06
1.18462e-06
4.55072e-07
1.15385e-06
2.98408e-07
1.15923e-06
6.59756e-07
1.16317e-06
8.03697e-07
1.13799e-06
3.28629e-07
1.14451e-06
9.28994e-07
1.10146e-06
1.09983e-07
1.12054e-06
6.01628e-07
1.07978e-06
-6.47931e-08
1.09863e-06
2.79397e-07
-2.86347e-07
1.01645e-06
1.24294e-06
1.59773e-06
1.22117e-06
-1.89426e-06
1.20346e-06
2.97939e-07
1.19899e-06
2.60935e-08
1.23879e-06
1.70669e-06
1.11633e-06
-1.53992e-06
1.19703e-06
1.11309e-06
1.19053e-06
-2.79131e-08
1.17345e-06
-1.0028e-06
1.25127e-06
3.77249e-07
1.21156e-06
3.38114e-07
1.21865e-06
6.52671e-07
1.21808e-06
8.04263e-07
1.20011e-06
3.46604e-07
1.19076e-06
9.38349e-07
1.16593e-06
1.34804e-07
1.16088e-06
6.06685e-07
1.1517e-06
-5.56172e-08
1.14195e-06
2.8915e-07
-2.58543e-07
1.11415e-06
1.30004e-06
1.58048e-06
1.27806e-06
-1.87228e-06
1.25916e-06
3.16843e-07
1.2539e-06
3.1353e-08
1.29428e-06
1.66631e-06
1.17737e-06
-1.42301e-06
1.24419e-06
1.04628e-06
1.25432e-06
-3.80476e-08
1.23646e-06
-9.84938e-07
1.31414e-06
2.99572e-07
1.27665e-06
3.75604e-07
1.2826e-06
6.46719e-07
1.27713e-06
8.09732e-07
1.26234e-06
3.61395e-07
1.25252e-06
9.4817e-07
1.23061e-06
1.56711e-07
1.22972e-06
6.07574e-07
1.22171e-06
-4.76062e-08
1.22714e-06
2.83719e-07
-2.30424e-07
1.19902e-06
1.35984e-06
1.56474e-06
1.33836e-06
-1.8508e-06
1.31813e-06
3.37076e-07
1.31177e-06
3.77128e-08
1.35181e-06
1.62626e-06
1.2479e-06
-1.3191e-06
1.29511e-06
9.99069e-07
1.32665e-06
-6.9588e-08
1.30218e-06
-9.60466e-07
1.36833e-06
2.33415e-07
1.3429e-06
4.01036e-07
1.34198e-06
6.47639e-07
1.33517e-06
8.1654e-07
1.32034e-06
3.7623e-07
1.31517e-06
9.53336e-07
1.29407e-06
1.7781e-07
1.29783e-06
6.0382e-07
1.2881e-06
-3.78778e-08
1.30026e-06
2.71561e-07
-1.98507e-07
1.26834e-06
1.42279e-06
1.55031e-06
1.40185e-06
-1.82986e-06
1.38118e-06
3.57749e-07
1.37417e-06
4.4728e-08
1.41239e-06
1.58804e-06
1.32639e-06
-1.2331e-06
1.35389e-06
9.71561e-07
1.40131e-06
-1.17007e-07
1.36961e-06
-9.28762e-07
1.41569e-06
1.87335e-07
1.40758e-06
4.09142e-07
1.39959e-06
6.55629e-07
1.39099e-06
8.25141e-07
1.37501e-06
3.92217e-07
1.3754e-06
9.52945e-07
1.35747e-06
1.9574e-07
1.36667e-06
5.9462e-07
1.35654e-06
-2.77529e-08
1.37311e-06
2.54992e-07
-1.65928e-07
1.34053e-06
1.48926e-06
1.53673e-06
1.46824e-06
-1.80885e-06
1.44863e-06
3.77357e-07
1.44201e-06
5.13512e-08
1.47695e-06
1.5531e-06
1.4096e-06
-1.16574e-06
1.42284e-06
9.58326e-07
1.47506e-06
-1.69234e-07
1.44014e-06
-8.93836e-07
1.46567e-06
1.61799e-07
1.47104e-06
4.03772e-07
1.46018e-06
6.66488e-07
1.45011e-06
8.35218e-07
1.43309e-06
4.09237e-07
1.43845e-06
9.47582e-07
1.42579e-06
2.08403e-07
1.44059e-06
5.79814e-07
1.43042e-06
-1.75804e-08
1.44977e-06
2.35641e-07
-1.32939e-07
1.41678e-06
1.5595e-06
1.52345e-06
1.53744e-06
-1.78679e-06
1.52039e-06
3.94404e-07
1.5154e-06
5.63403e-08
1.54621e-06
1.52229e-06
1.49481e-06
-1.11435e-06
1.50123e-06
9.51908e-07
1.54849e-06
-2.16501e-07
1.51462e-06
-8.59958e-07
1.52494e-06
1.51474e-07
1.53599e-06
3.92726e-07
1.5262e-06
6.7627e-07
1.51697e-06
8.44453e-07
1.5005e-06
4.25704e-07
1.50977e-06
9.38317e-07
1.50164e-06
2.16526e-07
1.52107e-06
5.60384e-07
1.5097e-06
-6.21131e-09
1.53051e-06
2.14839e-07
-9.93618e-08
1.49693e-06
1.63366e-06
1.50992e-06
1.60964e-06
-1.76277e-06
1.5962e-06
4.07834e-07
1.5939e-06
5.86469e-08
1.62045e-06
1.49574e-06
1.58081e-06
-1.0747e-06
1.5866e-06
9.46121e-07
1.62347e-06
-2.53379e-07
1.59222e-06
-8.28699e-07
1.59371e-06
1.49978e-07
1.60482e-06
3.8162e-07
1.59803e-06
6.83056e-07
1.59179e-06
8.50689e-07
1.57793e-06
4.39572e-07
1.59042e-06
9.25826e-07
1.58445e-06
2.22491e-07
1.60694e-06
5.37893e-07
1.59316e-06
7.57026e-09
1.61434e-06
1.93666e-07
-6.55537e-08
1.58053e-06
1.71183e-06
1.49566e-06
1.6852e-06
-1.73614e-06
1.6759e-06
4.17135e-07
1.67685e-06
5.76921e-08
1.69965e-06
1.47294e-06
1.66765e-06
-1.0427e-06
1.67643e-06
9.37345e-07
1.70148e-06
-2.78427e-07
1.67198e-06
-7.99204e-07
1.66901e-06
1.5295e-07
1.67824e-06
3.72392e-07
1.67496e-06
6.86337e-07
1.67259e-06
8.53059e-07
1.66251e-06
4.4965e-07
1.67804e-06
9.10299e-07
1.67218e-06
2.28346e-07
1.69659e-06
5.13491e-07
1.67993e-06
2.42267e-08
1.7006e-06
1.72995e-07
-3.2288e-08
1.66734e-06
1.79406e-06
1.48033e-06
1.76456e-06
-1.70664e-06
1.75945e-06
4.22243e-07
1.76366e-06
5.34813e-08
1.78361e-06
1.45299e-06
1.75589e-06
-1.01499e-06
1.76898e-06
9.24257e-07
1.78321e-06
-2.92663e-07
1.75394e-06
-7.69928e-07
1.7484e-06
1.58484e-07
1.75587e-06
3.64923e-07
1.75598e-06
6.86229e-07
1.75747e-06
8.5157e-07
1.75137e-06
4.5575e-07
1.77e-06
8.91669e-07
1.76328e-06
2.35064e-07
1.78903e-06
4.87737e-07
1.76977e-06
4.34946e-08
1.78913e-06
1.53632e-07
-4.30294e-10
1.75727e-06
1.88036e-06
1.46372e-06
1.84813e-06
-1.67441e-06
1.84694e-06
4.2344e-07
1.85388e-06
4.65338e-08
1.87206e-06
1.43481e-06
1.84604e-06
-9.88963e-07
1.86333e-06
9.06963e-07
1.8688e-06
-2.98125e-07
1.83876e-06
-7.39894e-07
1.83115e-06
1.66096e-07
1.83744e-06
3.58635e-07
1.84054e-06
6.83128e-07
1.84568e-06
8.46428e-07
1.84329e-06
4.58145e-07
1.86516e-06
8.69798e-07
1.85737e-06
2.42856e-07
1.88407e-06
4.6103e-07
1.86279e-06
6.47765e-08
1.87999e-06
1.36431e-07
2.92306e-08
1.85033e-06
1.97078e-06
1.44578e-06
1.93635e-06
-1.63998e-06
1.93848e-06
4.21315e-07
1.94732e-06
3.76929e-08
1.96483e-06
1.4173e-06
1.93861e-06
-9.62741e-07
1.95941e-06
8.86163e-07
1.95812e-06
-2.96837e-07
1.92723e-06
-7.09004e-07
1.91777e-06
1.75552e-07
1.92346e-06
3.52946e-07
1.92913e-06
6.7746e-07
1.93776e-06
8.37801e-07
1.93865e-06
4.5725e-07
1.9637e-06
8.44754e-07
1.95479e-06
2.51764e-07
1.98181e-06
4.34006e-07
1.95914e-06
8.74461e-08
1.97332e-06
1.22252e-07
5.60137e-08
1.94654e-06
2.06536e-06
1.42661e-06
2.02955e-06
-1.60418e-06
2.03418e-06
4.16688e-07
2.04393e-06
2.79443e-08
2.06177e-06
1.39945e-06
2.03418e-06
-9.3515e-07
2.05775e-06
8.62599e-07
2.05111e-06
-2.90204e-07
2.01996e-06
-6.77851e-07
2.00929e-06
1.86225e-07
2.01511e-06
3.47128e-07
2.02309e-06
6.69474e-07
2.03491e-06
8.25987e-07
2.03843e-06
4.53722e-07
2.06611e-06
8.17077e-07
2.05586e-06
2.62011e-07
2.08225e-06
4.07619e-07
2.05884e-06
1.10861e-07
2.06926e-06
1.1183e-07
7.93394e-08
2.04593e-06
2.16423e-06
1.40638e-06
2.12791e-06
-1.56785e-06
2.13413e-06
4.10471e-07
2.14376e-06
1.83061e-08
2.16281e-06
1.3804e-06
2.13343e-06
-9.05762e-07
2.15917e-06
8.36856e-07
2.14793e-06
-2.78961e-07
2.11745e-06
-6.4737e-07
2.10654e-06
1.97127e-07
2.11338e-06
3.40291e-07
2.12361e-06
6.59243e-07
2.13794e-06
8.11654e-07
2.14308e-06
4.48591e-07
2.17238e-06
7.87773e-07
2.1605e-06
2.73889e-07
2.18523e-06
3.82888e-07
2.16178e-06
1.34313e-07
2.16804e-06
1.05573e-07
9.87398e-08
2.14864e-06
2.26761e-06
1.38525e-06
2.23137e-06
-1.53161e-06
2.23837e-06
4.0348e-07
2.24692e-06
9.75422e-09
2.26795e-06
1.35938e-06
2.23687e-06
-8.74685e-07
2.26437e-06
8.09356e-07
2.24895e-06
-2.63541e-07
2.22006e-06
-6.1848e-07
2.20978e-06
2.07407e-07
2.21832e-06
3.31749e-07
2.2307e-06
6.46861e-07
2.24652e-06
7.95839e-07
2.25204e-06
4.43067e-07
2.28184e-06
7.57977e-07
2.26832e-06
2.87407e-07
2.29062e-06
3.6059e-07
2.268e-06
1.56927e-07
2.27014e-06
1.03432e-07
1.13994e-07
2.25489e-06
2.3758e-06
1.36332e-06
2.33981e-06
-1.49562e-06
2.34702e-06
3.96271e-07
2.35365e-06
3.12337e-09
2.37731e-06
1.33571e-06
2.34482e-06
-8.42196e-07
2.37377e-06
7.80408e-07
2.35471e-06
-2.44485e-07
2.32802e-06
-5.91784e-07
2.31861e-06
2.16815e-07
2.32896e-06
3.21397e-07
2.3432e-06
6.32623e-07
2.35938e-06
7.79656e-07
2.36432e-06
4.3813e-07
2.39374e-06
7.28557e-07
2.37911e-06
3.02034e-07
2.39862e-06
3.41081e-07
2.37778e-06
1.77767e-07
2.37635e-06
1.04859e-07
1.25286e-07
2.36506e-06
2.48912e-06
1.3406e-06
2.45314e-06
-1.45964e-06
2.46035e-06
3.89058e-07
2.46447e-06
-9.96909e-10
2.49123e-06
1.30896e-06
2.45748e-06
-8.08446e-07
2.48766e-06
7.50222e-07
2.46573e-06
-2.22553e-07
2.44141e-06
-5.6746e-07
2.43246e-06
2.25761e-07
2.44408e-06
3.09777e-07
2.45972e-06
6.16991e-07
2.47542e-06
7.63956e-07
2.47935e-06
4.34198e-07
2.50796e-06
6.99947e-07
2.49317e-06
3.16824e-07
2.50993e-06
3.2432e-07
2.49162e-06
1.96075e-07
2.4874e-06
1.09077e-07
1.33093e-07
2.4796e-06
2.60788e-06
1.31701e-06
2.57146e-06
-1.42322e-06
2.57876e-06
3.81758e-07
2.58008e-06
-2.31124e-09
2.61015e-06
1.27889e-06
2.57507e-06
-7.73373e-07
2.60639e-06
7.189e-07
2.58238e-06
-1.98544e-07
2.56028e-06
-5.45355e-07
2.55108e-06
2.34962e-07
2.56307e-06
2.97785e-07
2.57967e-06
6.00389e-07
2.59445e-06
7.49178e-07
2.59752e-06
4.3113e-07
2.62521e-06
6.72251e-07
2.61123e-06
3.30805e-07
2.62556e-06
3.09992e-07
2.61015e-06
2.1149e-07
2.60391e-06
1.15314e-07
1.38001e-07
2.599e-06
2.73234e-06
1.2925e-06
2.69505e-06
-1.38594e-06
2.7027e-06
3.74107e-07
2.70117e-06
-7.81104e-10
2.73454e-06
1.24553e-06
2.69795e-06
-7.36782e-07
2.73038e-06
6.86463e-07
2.7049e-06
-1.73064e-07
2.68472e-06
-5.25175e-07
2.67468e-06
2.45005e-07
2.68614e-06
2.86324e-07
2.70351e-06
5.83018e-07
2.71725e-06
7.35439e-07
2.71991e-06
4.28471e-07
2.74673e-06
6.45436e-07
2.73422e-06
3.43313e-07
2.74653e-06
2.97677e-07
2.73398e-06
2.2404e-07
2.72632e-06
1.22979e-07
1.40574e-07
2.72374e-06
2.86277e-06
1.267e-06
2.82425e-06
-1.34742e-06
2.83257e-06
3.65787e-07
2.82832e-06
3.46758e-09
2.86482e-06
1.20903e-06
2.82651e-06
-6.98468e-07
2.86009e-06
6.52878e-07
2.83347e-06
-1.46446e-07
2.81492e-06
-5.06625e-07
2.80383e-06
2.56099e-07
2.81405e-06
2.76102e-07
2.83225e-06
5.64824e-07
2.84501e-06
7.22674e-07
2.84771e-06
4.25773e-07
2.87373e-06
6.19413e-07
2.86293e-06
3.54118e-07
2.87363e-06
2.86974e-07
2.86369e-06
2.33974e-07
2.85498e-06
1.31691e-07
1.41344e-07
2.85421e-06
2.99943e-06
1.24047e-06
2.95943e-06
-1.30741e-06
2.96871e-06
3.56501e-07
2.96194e-06
1.02384e-08
3.00134e-06
1.16963e-06
2.96116e-06
-6.58286e-07
2.99594e-06
6.18102e-07
2.9683e-06
-1.18808e-07
2.95111e-06
-4.89438e-07
2.93917e-06
2.68044e-07
2.94765e-06
2.67624e-07
2.96689e-06
5.45583e-07
2.97881e-06
7.10753e-07
2.98179e-06
4.22788e-07
3.00719e-06
5.94015e-07
2.99793e-06
3.6338e-07
3.00734e-06
2.77565e-07
2.99979e-06
2.41524e-07
2.99018e-06
1.41304e-07
1.40816e-07
2.9907e-06
3.14261e-06
1.21286e-06
3.10094e-06
-1.26575e-06
3.11143e-06
3.46017e-07
3.10234e-06
1.93304e-08
3.1444e-06
1.12756e-06
3.1023e-06
-6.16181e-07
3.13828e-06
5.82122e-07
3.10966e-06
-9.01871e-08
3.09356e-06
-4.73339e-07
3.08126e-06
2.80342e-07
3.08763e-06
2.61252e-07
3.10818e-06
5.25033e-07
3.11943e-06
6.99507e-07
3.12272e-06
4.19501e-07
3.14772e-06
5.69009e-07
3.13964e-06
3.71461e-07
3.14794e-06
2.69265e-07
3.14266e-06
2.4681e-07
3.13221e-06
1.51751e-07
1.39557e-07
3.13347e-06
3.29261e-06
1.18416e-06
3.24917e-06
-1.2223e-06
3.26102e-06
3.34164e-07
3.24978e-06
3.05729e-08
3.29428e-06
1.08306e-06
3.25028e-06
-5.7218e-07
3.28741e-06
5.44994e-07
3.25788e-06
-6.06571e-08
3.24256e-06
-4.58018e-07
3.23055e-06
2.92345e-07
3.23453e-06
2.57274e-07
3.25658e-06
5.02984e-07
3.26738e-06
6.88705e-07
3.27076e-06
4.16121e-07
3.29566e-06
5.44112e-07
3.28844e-06
3.78685e-07
3.29555e-06
2.62153e-07
3.29268e-06
2.49678e-07
3.28141e-06
1.63022e-07
1.3826e-07
3.28271e-06
3.44975e-06
1.15434e-06
3.40446e-06
-1.17701e-06
3.41779e-06
3.20837e-07
3.40453e-06
4.3836e-08
3.45125e-06
1.03633e-06
3.40547e-06
-5.26396e-07
3.44359e-06
5.06873e-07
3.41333e-06
-3.03955e-08
3.39842e-06
-4.43106e-07
3.38741e-06
3.03348e-07
3.38874e-06
2.55943e-07
3.41236e-06
4.7937e-07
3.42303e-06
6.78029e-07
3.42613e-06
4.13026e-07
3.45118e-06
5.19057e-07
3.44469e-06
3.85176e-07
3.45029e-06
2.56552e-07
3.45007e-06
2.49903e-07
3.4382e-06
1.74887e-07
1.37771e-07
3.43869e-06
3.61437e-06
1.12338e-06
3.56721e-06
-1.12985e-06
3.58206e-06
3.05979e-07
3.56688e-06
5.90225e-08
3.61562e-06
9.87584e-07
3.56825e-06
-4.79025e-07
3.6071e-06
4.68021e-07
3.57642e-06
2.85772e-10
3.56148e-06
-4.28162e-07
3.55217e-06
3.12654e-07
3.55065e-06
2.57471e-07
3.5757e-06
4.54312e-07
3.58669e-06
6.67048e-07
3.58901e-06
4.10699e-07
3.61442e-06
4.93651e-07
3.6088e-06
3.90794e-07
3.61238e-06
2.52977e-07
3.61489e-06
2.47385e-07
3.60308e-06
1.86698e-07
1.39022e-07
3.60183e-06
3.7868e-06
1.09129e-06
3.73778e-06
-1.08083e-06
3.75419e-06
2.89571e-07
3.73716e-06
7.60533e-08
3.7877e-06
9.37043e-07
3.73903e-06
-4.30355e-07
3.77823e-06
4.28819e-07
3.74758e-06
3.09441e-08
3.7321e-06
-4.12688e-07
3.72515e-06
3.19604e-07
3.72064e-06
2.61988e-07
3.7468e-06
4.28147e-07
3.75861e-06
6.55238e-07
3.75972e-06
4.0959e-07
3.78546e-06
4.67906e-07
3.78112e-06
3.95142e-07
3.78219e-06
2.51908e-07
3.78724e-06
2.42335e-07
3.77643e-06
1.97505e-07
1.4273e-07
3.77272e-06
3.96742e-06
1.05806e-06
3.91659e-06
-1.03001e-06
3.93454e-06
2.71619e-07
3.91575e-06
9.48461e-08
3.96782e-06
8.84973e-07
3.91823e-06
-3.80766e-07
3.95729e-06
3.89754e-07
3.92722e-06
6.10159e-08
3.91065e-06
-3.96117e-07
3.90664e-06
3.23612e-07
3.89916e-06
2.69471e-07
3.92588e-06
4.01429e-07
3.93909e-06
6.4202e-07
3.93864e-06
4.1005e-07
3.96446e-06
4.42078e-07
3.96198e-06
3.9763e-07
3.96026e-06
2.53626e-07
3.96718e-06
2.35409e-07
3.95847e-06
2.0622e-07
1.49113e-07
3.95209e-06
4.1566e-06
1.02371e-06
4.10402e-06
-9.77433e-07
4.12349e-06
2.5215e-07
4.10305e-06
1.15293e-07
4.15631e-06
8.31704e-07
4.10628e-06
-3.3073e-07
4.14462e-06
3.51412e-07
4.1158e-06
8.98321e-08
4.09752e-06
-3.77835e-07
4.09692e-06
3.24219e-07
4.0867e-06
2.79686e-07
4.11323e-06
3.74896e-07
4.12842e-06
6.26838e-07
4.12621e-06
4.1226e-07
4.15165e-06
4.16633e-07
4.15166e-06
3.97618e-07
4.14718e-06
2.58106e-07
4.15496e-06
2.27627e-07
4.14935e-06
2.11837e-07
1.57768e-07
4.14069e-06
4.35474e-06
9.88274e-07
4.3005e-06
-9.23195e-07
4.32144e-06
2.31213e-07
4.29949e-06
1.37239e-07
4.35356e-06
7.77636e-07
4.30365e-06
-2.80813e-07
4.34059e-06
3.14472e-07
4.31375e-06
1.16671e-07
4.2932e-06
-3.57286e-07
4.2962e-06
3.21216e-07
4.28378e-06
2.92109e-07
4.30925e-06
3.49422e-07
4.32682e-06
6.0927e-07
4.32298e-06
4.16101e-07
4.34733e-06
3.92283e-07
4.35036e-06
3.94581e-07
4.34363e-06
2.64844e-07
4.35096e-06
2.2029e-07
4.34907e-06
2.13728e-07
1.67613e-07
4.33923e-06
4.56228e-06
9.51771e-07
4.50647e-06
-8.67386e-07
4.5288e-06
2.08884e-07
4.50556e-06
1.60478e-07
4.55995e-06
7.23246e-07
4.5108e-06
-2.31664e-07
4.54558e-06
2.79697e-07
4.5215e-06
1.40751e-07
4.4982e-06
-3.33991e-07
4.50474e-06
3.14681e-07
4.49088e-06
3.05968e-07
4.51439e-06
3.25911e-07
4.53456e-06
5.89094e-07
4.52949e-06
4.21171e-07
4.55192e-06
3.69859e-07
4.55829e-06
3.88212e-07
4.55014e-06
2.72993e-07
4.55586e-06
2.14571e-07
4.55762e-06
2.11967e-07
1.77076e-07
4.54816e-06
4.77964e-06
9.14248e-07
4.72237e-06
-8.10118e-07
4.74598e-06
1.85273e-07
4.72172e-06
1.84736e-07
4.77588e-06
6.69088e-07
4.72823e-06
-1.84017e-07
4.76002e-06
2.47909e-07
4.73942e-06
1.61348e-07
4.71313e-06
-3.07698e-07
4.72281e-06
3.05006e-07
4.70844e-06
3.20331e-07
4.72919e-06
3.05162e-07
4.75197e-06
5.66313e-07
4.74627e-06
4.26872e-07
4.76592e-06
3.50215e-07
4.77572e-06
3.78404e-07
4.76716e-06
2.81555e-07
4.7704e-06
2.11337e-07
4.77519e-06
2.07179e-07
1.84625e-07
4.76764e-06
5.00729e-06
8.75758e-07
4.94869e-06
-7.51522e-07
4.97343e-06
1.60532e-07
4.9485e-06
2.09669e-07
5.00179e-06
6.15801e-07
4.95646e-06
-1.38685e-07
4.98438e-06
2.19989e-07
4.96783e-06
1.77889e-07
4.93865e-06
-2.78515e-07
4.95077e-06
2.92884e-07
4.93689e-06
3.34214e-07
4.95425e-06
2.878e-07
4.9794e-06
5.41162e-07
4.97378e-06
4.32498e-07
4.99003e-06
3.33958e-07
5.00291e-06
3.65521e-07
4.99502e-06
2.89446e-07
4.9955e-06
2.10861e-07
5.00205e-06
2.00629e-07
1.89007e-07
4.99767e-06
5.24571e-06
8.36367e-07
5.18595e-06
-6.9176e-07
5.21161e-06
1.34869e-07
5.18642e-06
2.34856e-07
5.23813e-06
5.64093e-07
5.19598e-06
-9.65364e-08
5.21917e-06
1.96799e-07
5.20704e-06
1.90025e-07
5.17545e-06
-2.4693e-07
5.1891e-06
2.7924e-07
5.1766e-06
3.4671e-07
5.19025e-06
2.74155e-07
5.21725e-06
5.14162e-07
5.21253e-06
4.37216e-07
5.22499e-06
3.21492e-07
5.24028e-06
3.50231e-07
5.23401e-06
2.95724e-07
5.23195e-06
2.12919e-07
5.23887e-06
1.93707e-07
1.89774e-07
5.2381e-06
5.4954e-06
7.96159e-07
5.43467e-06
-6.31035e-07
5.46099e-06
1.08551e-07
5.43605e-06
2.598e-07
5.48541e-06
5.14732e-07
5.44733e-06
-5.84587e-08
5.4652e-06
1.78925e-07
5.45734e-06
1.97889e-07
5.42415e-06
-2.13745e-07
5.43837e-06
2.65022e-07
5.42794e-06
3.57137e-07
5.43784e-06
2.64262e-07
5.46606e-06
4.85938e-07
5.46295e-06
4.40327e-07
5.47163e-06
3.12812e-07
5.48841e-06
3.33447e-07
5.48443e-06
2.9971e-07
5.48043e-06
2.16921e-07
5.48643e-06
1.87707e-07
1.8723e-07
5.48897e-06
5.75689e-06
7.55231e-07
5.69544e-06
-5.69592e-07
5.72208e-06
8.19181e-08
5.69795e-06
2.83926e-07
5.74415e-06
4.68533e-07
5.71103e-06
-2.53401e-08
5.72333e-06
1.66628e-07
5.71912e-06
2.02101e-07
5.68536e-06
-1.79986e-07
5.69926e-06
2.51118e-07
5.6913e-06
3.65101e-07
5.69772e-06
2.57842e-07
5.72643e-06
4.57223e-07
5.72544e-06
4.41314e-07
5.73063e-06
3.07621e-07
5.74794e-06
3.16145e-07
5.74677e-06
3.00876e-07
5.74139e-06
2.22306e-07
5.74575e-06
1.83347e-07
1.82352e-07
5.75062e-06
6.03072e-06
7.13705e-07
5.96886e-06
-5.07735e-07
5.9954e-06
5.53809e-08
5.97273e-06
3.06599e-07
6.01494e-06
4.26319e-07
5.9876e-06
2.00059e-09
5.99435e-06
1.59873e-07
5.99286e-06
2.0359e-07
5.9596e-06
-1.46718e-07
5.97247e-06
2.38247e-07
5.96708e-06
3.70487e-07
5.97056e-06
2.5436e-07
5.99901e-06
4.28776e-07
6.00046e-06
4.39864e-07
6.00259e-06
3.05496e-07
6.01958e-06
2.99146e-07
6.0214e-06
2.99055e-07
6.01535e-06
2.28358e-07
6.01777e-06
1.80932e-07
1.76388e-07
6.02373e-06
6.31747e-06
6.71722e-07
6.25556e-06
-4.45823e-07
6.28151e-06
2.94268e-08
6.26099e-06
3.27123e-07
6.29841e-06
3.88902e-07
6.27723e-06
2.31776e-08
6.27907e-06
1.58033e-07
6.27918e-06
2.0348e-07
6.24734e-06
-1.14879e-07
6.25875e-06
2.26843e-07
6.25581e-06
3.73421e-07
6.2569e-06
2.53274e-07
6.28452e-06
4.0116e-07
6.28845e-06
4.35935e-07
6.28812e-06
3.05821e-07
6.30402e-06
2.83247e-07
6.30884e-06
2.94231e-07
6.30287e-06
2.3433e-07
6.30333e-06
1.80478e-07
1.7045e-07
6.30926e-06
6.61775e-06
6.29443e-07
6.55619e-06
-3.8427e-07
6.58103e-06
4.59313e-09
6.56335e-06
3.44797e-07
6.59528e-06
3.56975e-07
6.58014e-06
3.83151e-08
6.57819e-06
1.5999e-07
6.57876e-06
2.02908e-07
6.54904e-06
-8.51591e-08
6.55886e-06
2.17024e-07
6.55804e-06
3.74234e-07
6.55729e-06
2.5403e-07
6.58357e-06
3.74877e-07
6.59003e-06
4.29477e-07
6.58783e-06
3.08015e-07
6.60192e-06
2.69166e-07
6.60966e-06
2.86491e-07
6.60446e-06
2.39523e-07
6.60314e-06
1.81799e-07
1.65314e-07
6.60828e-06
6.93218e-06
5.87053e-07
6.87144e-06
-3.23524e-07
6.89458e-06
-1.85535e-08
6.88047e-06
3.5891e-07
6.90643e-06
3.31009e-07
6.89678e-06
4.79651e-08
6.89231e-06
1.64461e-07
6.89232e-06
2.029e-07
6.86513e-06
-5.79653e-08
6.8735e-06
2.08645e-07
6.8744e-06
3.7334e-07
6.87223e-06
2.56201e-07
6.89684e-06
3.50263e-07
6.90579e-06
4.20524e-07
6.90235e-06
3.11461e-07
6.91402e-06
2.57491e-07
6.92445e-06
2.76068e-07
6.92066e-06
2.43305e-07
6.91794e-06
1.84522e-07
1.61374e-07
6.92188e-06
7.26144e-06
5.44753e-07
7.20197e-06
-2.64057e-07
7.22288e-06
-3.94667e-08
7.21295e-06
3.68844e-07
7.23275e-06
3.1121e-07
7.22772e-06
5.29909e-08
7.22206e-06
1.70122e-07
7.2207e-06
2.04259e-07
7.19608e-06
-3.33385e-08
7.20335e-06
2.01368e-07
7.20559e-06
3.71102e-07
7.20223e-06
2.5956e-07
7.225e-06
3.27496e-07
7.23644e-06
4.09086e-07
7.23232e-06
3.15576e-07
7.24122e-06
2.48591e-07
7.25373e-06
2.63558e-07
7.25212e-06
2.44921e-07
7.24828e-06
1.88359e-07
1.58722e-07
7.25093e-06
7.60622e-06
5.02762e-07
7.54849e-06
-2.06328e-07
7.5667e-06
-5.76743e-08
7.56143e-06
3.74112e-07
7.57504e-06
2.97593e-07
7.57363e-06
5.4408e-08
7.56804e-06
1.75713e-07
7.56478e-06
2.07519e-07
7.54241e-06
-1.0972e-08
7.54899e-06
1.94785e-07
7.55234e-06
3.67752e-07
7.5479e-06
2.64007e-07
7.56869e-06
3.06702e-07
7.58254e-06
3.95237e-07
7.57858e-06
3.19531e-07
7.58445e-06
2.42726e-07
7.59812e-06
2.49884e-07
7.59928e-06
2.43765e-07
7.5949e-06
1.92737e-07
1.57426e-07
7.5962e-06
7.96725e-06
4.61321e-07
7.91171e-06
-1.50786e-07
7.92684e-06
-7.28016e-08
7.9265e-06
3.74452e-07
7.93433e-06
2.89761e-07
7.93539e-06
5.3345e-08
7.9311e-06
1.80006e-07
7.92568e-06
2.12943e-07
7.90464e-06
1.00669e-08
7.91094e-06
1.88479e-07
7.91542e-06
3.63276e-07
7.90996e-06
2.69465e-07
7.92856e-06
2.88105e-07
7.94469e-06
3.79102e-07
7.94182e-06
3.22407e-07
7.94472e-06
2.3982e-07
7.95831e-06
2.36292e-07
7.96264e-06
2.39435e-07
7.95855e-06
1.96835e-07
1.57608e-07
7.95836e-06
8.34531e-06
4.20694e-07
8.29243e-06
-9.79068e-08
8.30414e-06
-8.4511e-08
8.30878e-06
3.69812e-07
8.31186e-06
2.86673e-07
8.31461e-06
5.06035e-08
8.31205e-06
1.82565e-07
8.30383e-06
2.21156e-07
8.28315e-06
3.07479e-08
8.28967e-06
1.81963e-07
8.29556e-06
3.57389e-07
8.28943e-06
2.7559e-07
8.30536e-06
2.7218e-07
8.32354e-06
3.60918e-07
8.32266e-06
3.23292e-07
8.32302e-06
2.39454e-07
8.33534e-06
2.23978e-07
8.34266e-06
2.3211e-07
8.3398e-06
1.99693e-07
1.59104e-07
8.33831e-06
8.74118e-06
3.81174e-07
8.69148e-06
-4.82081e-08
8.69937e-06
-9.24017e-08
8.70908e-06
3.60109e-07
8.70726e-06
2.88494e-07
8.70787e-06
4.99935e-08
8.70846e-06
1.81972e-07
8.6997e-06
2.29921e-07
8.67897e-06
5.14778e-08
8.68587e-06
1.75059e-07
8.6936e-06
3.4966e-07
8.68733e-06
2.81863e-07
8.70009e-06
2.5942e-07
8.71999e-06
3.41017e-07
8.72172e-06
3.21559e-07
8.72024e-06
2.40937e-07
8.73041e-06
2.13801e-07
8.74e-06
2.22524e-07
8.73928e-06
2.0041e-07
1.61512e-07
8.73687e-06
9.1557e-06
3.43098e-07
9.10982e-06
-2.33778e-09
9.11324e-06
-9.58145e-08
9.12768e-06
3.45668e-07
9.12181e-06
2.94365e-07
9.1204e-06
5.14023e-08
9.12456e-06
1.77813e-07
9.11576e-06
2.3872e-07
9.0939e-06
7.33345e-08
9.10047e-06
1.68494e-07
9.11049e-06
3.3964e-07
9.10462e-06
2.87728e-07
9.11401e-06
2.50036e-07
9.13487e-06
3.20151e-07
9.13963e-06
3.16802e-07
9.13726e-06
2.43303e-07
9.14477e-06
2.06289e-07
9.1555e-06
2.11795e-07
9.15745e-06
1.98464e-07
1.64021e-07
9.15494e-06
9.58974e-06
3.06822e-07
9.54836e-06
3.90348e-08
9.54671e-06
-9.41615e-08
9.56604e-06
3.26337e-07
9.55814e-06
3.02265e-07
9.5529e-06
5.66484e-08
9.55988e-06
1.70831e-07
9.5523e-06
2.46292e-07
9.52938e-06
9.62561e-08
9.53456e-06
1.63318e-07
9.54713e-06
3.27072e-07
9.54242e-06
2.92434e-07
9.5485e-06
2.43952e-07
9.56922e-06
2.99433e-07
9.57708e-06
3.08942e-07
9.57489e-06
2.45501e-07
9.57966e-06
2.01519e-07
9.59037e-06
2.01083e-07
9.59485e-06
1.93977e-07
1.65671e-07
9.5932e-06
1.00442e-05
2.7271e-07
1.0008e-05
7.52738e-08
1.0001e-05
-8.71448e-08
1.00246e-05
3.02766e-07
1.00167e-05
3.10174e-07
1.00067e-05
6.65607e-08
1.00154e-05
1.62207e-07
1.001e-05
2.5168e-07
9.98676e-06
1.19474e-07
9.98957e-06
1.60505e-07
1.00043e-05
3.12339e-07
1.00016e-05
2.95161e-07
1.00048e-05
2.40719e-07
1.00242e-05
2.80034e-07
1.00349e-05
2.9826e-07
1.00337e-05
2.46651e-07
1.00363e-05
1.99009e-07
1.00459e-05
1.91443e-07
1.00524e-05
1.87514e-07
1.65741e-07
1.00523e-05
1.05203e-05
2.41086e-07
1.04897e-05
1.05834e-07
1.04774e-05
-7.48025e-08
1.0504e-05
2.76085e-07
1.04981e-05
3.16131e-07
1.04836e-05
8.10694e-08
1.04921e-05
1.53649e-07
1.04896e-05
2.54238e-07
1.0467e-05
1.42017e-07
1.0467e-05
1.60504e-07
1.0483e-05
2.96407e-07
1.04828e-05
2.95336e-07
1.0484e-05
2.39548e-07
1.05011e-05
2.62915e-07
1.0514e-05
2.85354e-07
1.05146e-05
2.46029e-07
1.05156e-05
1.97995e-07
1.05235e-05
1.83526e-07
1.0531e-05
1.80046e-07
1.63905e-07
1.05328e-05
1.10189e-05
2.12223e-07
1.09944e-05
1.30342e-07
1.09773e-05
-5.76788e-08
1.10054e-05
2.47962e-07
1.10029e-05
3.18571e-07
1.09846e-05
9.93719e-08
1.09915e-05
1.46816e-07
1.09919e-05
2.53782e-07
1.0971e-05
1.62924e-07
1.09683e-05
1.63262e-07
1.09843e-05
2.80358e-07
1.09869e-05
2.92752e-07
1.09868e-05
2.39599e-07
1.10012e-05
2.48539e-07
1.10155e-05
2.71075e-07
1.10182e-05
2.43294e-07
1.10186e-05
1.97623e-07
1.10246e-05
1.77524e-07
1.10323e-05
1.72378e-07
1.60395e-07
1.10358e-05
1.15413e-05
1.86291e-07
1.15229e-05
1.48691e-07
1.15021e-05
-3.6869e-08
1.15295e-05
2.20581e-07
1.15319e-05
3.16178e-07
1.15111e-05
1.20224e-07
1.15147e-05
1.43126e-07
1.15179e-05
2.50616e-07
1.14995e-05
1.81366e-07
1.14945e-05
1.68281e-07
1.15096e-05
2.65246e-07
1.15148e-05
2.87506e-07
1.15143e-05
2.4007e-07
1.15259e-05
2.37e-07
1.15406e-05
2.56342e-07
1.15456e-05
2.38356e-07
1.1546e-05
1.97178e-07
1.15504e-05
1.7314e-07
1.15576e-05
1.65138e-07
1.55814e-07
1.15622e-05
1.20887e-05
1.63369e-07
1.20765e-05
1.60979e-07
1.20534e-05
-1.3772e-08
1.2078e-05
1.95922e-07
1.20853e-05
3.08894e-07
1.20638e-05
1.41743e-07
1.20636e-05
1.43294e-07
1.20686e-05
2.45615e-07
1.20532e-05
1.96749e-07
1.20466e-05
1.74898e-07
1.20602e-05
2.51677e-07
1.20676e-05
2.80084e-07
1.20675e-05
2.40145e-07
1.20764e-05
2.28151e-07
1.20907e-05
2.42035e-07
1.20976e-05
2.31404e-07
1.20988e-05
1.96048e-07
1.2102e-05
1.69953e-07
1.21084e-05
1.58716e-07
1.50641e-07
1.21135e-05
1.26625e-05
1.43424e-07
1.26557e-05
1.67828e-07
1.26317e-05
1.02342e-08
1.26522e-05
1.75389e-07
1.26634e-05
2.97706e-07
1.26433e-05
1.6183e-07
1.26395e-05
1.47112e-07
1.26453e-05
2.39828e-07
1.26332e-05
2.08793e-07
1.26258e-05
1.8229e-07
1.26375e-05
2.40008e-07
1.26465e-05
2.7113e-07
1.26474e-05
2.39234e-07
1.2654e-05
2.21533e-07
1.26672e-05
2.28865e-07
1.26757e-05
2.22915e-07
1.26779e-05
1.93777e-07
1.26804e-05
1.67525e-07
1.26859e-05
1.53211e-07
1.45212e-07
1.26913e-05
1.3264e-05
1.26324e-07
1.3261e-05
1.70853e-07
1.32376e-05
3.3648e-08
1.32533e-05
1.59667e-07
1.32672e-05
2.83811e-07
1.32501e-05
1.78966e-07
1.32437e-05
1.53526e-07
1.32494e-05
2.34137e-07
1.32406e-05
2.17535e-07
1.32332e-05
1.89705e-07
1.32429e-05
2.30349e-07
1.32528e-05
2.61174e-07
1.32549e-05
2.37097e-07
1.32601e-05
2.16419e-07
1.32716e-05
2.17335e-07
1.32809e-05
2.13592e-07
1.32846e-05
1.90049e-07
1.32868e-05
1.6534e-07
1.32914e-05
1.48628e-07
1.3981e-07
1.32968e-05
1.38947e-05
1.11832e-07
1.38952e-05
1.70262e-07
1.38731e-05
5.57747e-08
1.38831e-05
1.49656e-07
1.3898e-05
2.68969e-07
1.38848e-05
1.92105e-07
1.38773e-05
1.61086e-07
1.38824e-05
2.29031e-07
1.38766e-05
2.23275e-07
1.38698e-05
1.96557e-07
1.38775e-05
2.2259e-07
1.3888e-05
2.50744e-07
1.38915e-05
2.33588e-07
1.38957e-05
2.12234e-07
1.39055e-05
2.075e-07
1.3915e-05
2.04136e-07
1.392e-05
1.85004e-07
1.39226e-05
1.62781e-07
1.39263e-05
1.44923e-07
1.34618e-07
1.39315e-05
1.45558e-05
9.9701e-08
1.4558e-05
1.68047e-07
1.45383e-05
7.54523e-08
1.45437e-05
1.4432e-07
1.45583e-05
2.54381e-07
1.45493e-05
2.01108e-07
1.45417e-05
1.68683e-07
1.45461e-05
2.24629e-07
1.45427e-05
2.26651e-07
1.45368e-05
2.02394e-07
1.4543e-05
2.1648e-07
1.45534e-05
2.4029e-07
1.45582e-05
2.28757e-07
1.45621e-05
2.084e-07
1.45704e-05
1.99208e-07
1.45795e-05
1.9504e-07
1.45854e-05
1.79059e-07
1.45887e-05
1.5944e-07
1.45919e-05
1.41734e-07
1.29943e-07
1.45966e-05
1.52489e-05
8.96416e-08
1.52525e-05
1.64451e-07
1.52352e-05
9.28167e-08
1.52369e-05
1.426e-07
1.52502e-05
2.41024e-07
1.52447e-05
2.06612e-07
1.52381e-05
1.75332e-07
1.5242e-05
2.2077e-07
1.52404e-05
2.28195e-07
1.52357e-05
2.07129e-07
1.52405e-05
2.11674e-07
1.52505e-05
2.30226e-07
1.52567e-05
2.22622e-07
1.52605e-05
2.04557e-07
1.52676e-05
1.9215e-07
1.52761e-05
1.86541e-07
1.52824e-05
1.72713e-07
1.52866e-05
1.55286e-07
1.52898e-05
1.38518e-07
1.25942e-07
1.52938e-05
1.59756e-05
8.13935e-08
1.59797e-05
1.60337e-07
1.59648e-05
1.07752e-07
1.59642e-05
1.43166e-07
1.59758e-05
2.29371e-07
1.59729e-05
2.09588e-07
1.59678e-05
1.80416e-07
1.59715e-05
2.17069e-07
1.59715e-05
2.2819e-07
1.59678e-05
2.10804e-07
1.59716e-05
2.07932e-07
1.5981e-05
2.20754e-07
1.59881e-05
2.15504e-07
1.59925e-05
2.00217e-07
1.59985e-05
1.86116e-07
1.60064e-05
1.78663e-07
1.60128e-05
1.66265e-07
1.60175e-05
1.506e-07
1.60212e-05
1.34851e-07
1.22419e-07
1.60247e-05
1.67372e-05
7.47458e-08
1.67405e-05
1.57048e-07
1.67283e-05
1.19974e-07
1.6727e-05
1.44438e-07
1.67371e-05
2.19309e-07
1.67357e-05
2.10995e-07
1.6732e-05
1.84089e-07
1.6736e-05
2.13091e-07
1.67376e-05
2.26603e-07
1.6735e-05
2.13443e-07
1.67378e-05
2.05117e-07
1.67465e-05
2.12054e-07
1.67542e-05
2.0776e-07
1.67594e-05
1.95075e-07
1.67648e-05
1.80633e-07
1.67719e-05
1.71588e-07
1.67784e-05
1.59745e-07
1.67833e-05
1.45734e-07
1.67875e-05
1.30655e-07
1.1899e-07
1.67909e-05
1.75357e-05
6.94476e-08
1.75397e-05
1.52977e-07
1.75292e-05
1.30502e-07
1.75271e-05
1.46497e-07
1.75359e-05
2.10571e-07
1.75354e-05
2.11454e-07
1.75325e-05
1.87009e-07
1.75369e-05
2.08652e-07
1.75402e-05
2.23369e-07
1.75387e-05
2.14869e-07
1.75409e-05
2.0295e-07
1.75485e-05
2.04476e-07
1.75567e-05
1.99585e-07
1.75626e-05
1.89163e-07
1.7568e-05
1.7521e-07
1.75744e-05
1.65203e-07
1.75808e-05
1.53346e-07
1.75858e-05
1.40735e-07
1.75902e-05
1.26252e-07
1.15241e-07
1.75939e-05
1.83725e-05
6.53112e-08
1.83768e-05
1.48666e-07
1.83684e-05
1.38885e-07
1.8366e-05
1.48921e-07
1.83737e-05
2.02828e-07
1.8374e-05
2.11194e-07
1.83713e-05
1.8968e-07
1.83759e-05
2.04029e-07
1.83807e-05
2.18602e-07
1.83809e-05
2.14656e-07
1.83827e-05
2.01139e-07
1.83891e-05
1.98066e-07
1.83972e-05
1.91503e-07
1.84038e-05
1.82564e-07
1.84095e-05
1.69511e-07
1.84155e-05
1.59213e-07
1.84217e-05
1.47205e-07
1.84268e-05
1.35562e-07
1.84312e-05
1.21878e-07
1.11093e-07
1.84353e-05
1.92496e-05
6.21497e-08
1.9254e-05
1.4419e-07
1.92476e-05
1.45268e-07
1.92451e-05
1.5145e-07
1.92521e-05
1.95805e-07
1.92532e-05
2.10122e-07
1.92508e-05
1.92128e-07
1.92549e-05
1.99936e-07
1.92609e-05
2.12548e-07
1.92631e-05
2.12501e-07
1.92649e-05
1.99321e-07
1.92704e-05
1.92577e-07
1.92779e-05
1.84015e-07
1.9285e-05
1.75475e-07
1.92911e-05
1.63389e-07
1.9297e-05