/*--------------------------------*- C++ -*----------------------------------*\
| =========                 |                                                 |
| \\      /  F ield         | OpenFOAM: The Open Source CFD Toolbox           |
|  \\    /   O peration     | Version:  2506                                  |
|   \\  /    A nd           | Website:  www.openfoam.com                      |
|    \\/     M anipulation  |                                                 |
\*---------------------------------------------------------------------------*/
FoamFile
{
    version     2.0;
    format      ascii;
    arch        "LSB;label=32;scalar=64";
    class       volScalarField;
    location    "4.65";
    object      p;
}
// * * * * * * * * * * * * * * * * * * * * * * * * * * * * * * * * * * * * * //

dimensions      [0 2 -2 0 0 0 0];

internalField   nonuniform List<scalar> 
9600
(
-1.07205e-10
0.000329328
-0.000735427
-0.000688906
0.000494016
0.00208187
0.00315824
0.00357125
0.00365409
0.00398227
0.00540459
0.00468033
0.0073967
0.00956175
0.0137537
0.0165405
0.0178334
0.0178195
0.0221579
0.0267268
-7.03942e-06
0.000336076
-0.000733925
-0.000648048
0.000487541
0.00208067
0.00314974
0.00356523
0.00364858
0.00398274
0.0054222
0.00468978
0.00741274
0.00952653
0.0137514
0.0162649
0.0178432
0.0177273
0.0222401
0.026209
-1.27075e-05
0.000346705
-0.000735024
-0.000625117
0.000470667
0.0020796
0.00313935
0.00356727
0.00364637
0.00398398
0.00544536
0.00470113
0.00743278
0.00947637
0.0137413
0.0160766
0.0178436
0.0176394
0.0222738
0.0255223
-1.62894e-05
0.000355539
-0.000738209
-0.000608247
0.000453738
0.00208427
0.00313224
0.00357523
0.00364498
0.0039877
0.0054749
0.00471883
0.00746581
0.00941663
0.0137297
0.0158805
0.0178306
0.0175737
0.0222081
0.02496
-1.8851e-05
0.000362446
-0.000742356
-0.000593688
0.000443078
0.00209294
0.00312898
0.00358851
0.00364708
0.00399296
0.00550745
0.00474748
0.00751236
0.00934897
0.0137241
0.0156796
0.0178208
0.0175154
0.022099
0.0244706
-2.11207e-05
0.000368153
-0.000745333
-0.000577907
0.000439642
0.002103
0.00312942
0.00360585
0.00365299
0.00399986
0.00554272
0.00478902
0.00756865
0.00927723
0.0137238
0.0154826
0.0178061
0.0174675
0.0219519
0.024015
-2.35436e-05
0.000374122
-0.00074493
-0.000558585
0.000443023
0.00211405
0.0031321
0.00362615
0.00366269
0.00400749
0.00557997
0.00484118
0.00763149
0.00920223
0.0137251
0.0152921
0.0177751
0.0174336
0.0217526
0.0235803
-2.62948e-05
0.000381939
-0.000739437
-0.000534124
0.00045349
0.00212627
0.00313546
0.00364822
0.00367575
0.00401535
0.00561857
0.00490039
0.00769868
0.00912278
0.0137236
0.0151103
0.0177221
0.0174129
0.0214976
0.0231615
-2.94053e-05
0.000392673
-0.000728001
-0.000503509
0.000471212
0.00213944
0.00313691
0.00367121
0.00369195
0.00402318
0.00565808
0.00496244
0.00776222
0.00903757
0.0137127
0.0149449
0.0176417
0.0174029
0.0211893
0.0227511
-3.28234e-05
0.000406724
-0.00071082
-0.000466356
0.000495846
0.00215331
0.00313528
0.00369448
0.00371103
0.00403125
0.00569874
0.00502411
0.00782145
0.00894686
0.0136853
0.0147934
0.0175294
0.0173982
0.0208338
0.0223419
-3.64386e-05
0.000423954
-0.000688892
-0.000423133
0.000526617
0.00216767
0.00313168
0.0037174
0.00373261
0.00403981
0.00574082
0.00508516
0.00787484
0.00885337
0.0136357
0.0146593
0.0173823
0.0173915
0.0204399
0.0219207
-4.01464e-05
0.00044393
-0.000663496
-0.000375044
0.000562379
0.00218203
0.00312643
0.00373913
0.00375604
0.00404894
0.00578407
0.00514786
0.0079215
0.00876314
0.0135612
0.0145404
0.0172008
0.0173749
0.0200165
0.0214831
-4.38448e-05
0.000466214
-0.000635777
-0.000323641
0.000601777
0.00219546
0.00311971
0.00375868
0.00378048
0.00405855
0.00582788
0.00521488
0.00796091
0.00868463
0.013462
0.0144335
0.0169883
0.0173467
0.0195741
0.0210246
-4.74271e-05
0.000490468
-0.000606569
-0.000270223
0.000643626
0.00220698
0.00311157
0.00377504
0.00380507
0.00406833
0.00587157
0.00528818
0.00799265
0.00862527
0.0133406
0.0143353
0.0167503
0.0172891
0.0191238
0.0205442
-5.07979e-05
0.00051645
-0.000576428
-0.000215652
0.000687413
0.00221591
0.00310197
0.00378751
0.00382923
0.00407803
0.00591441
0.00536849
0.00801607
0.00858838
0.0132004
0.0142439
0.0164927
0.0172037
0.0186744
0.0200435
-5.38797e-05
0.000543939
-0.000545529
-0.000160332
0.000733131
0.00222199
0.00309104
0.00379587
0.00385267
0.00408785
0.00595582
0.00545522
0.00803064
0.00857265
0.0130441
0.0141553
0.0162209
0.0170871
0.0182322
0.0195248
-5.65984e-05
0.000572715
-0.000513763
-0.000104365
0.000780935
0.00222521
0.00307908
0.00380026
0.00387538
0.00409818
0.00599539
0.00554701
0.00803612
0.00857343
0.0128736
0.0140683
0.015939
0.0169363
0.0178015
0.0189908
-5.88655e-05
0.00060255
-0.000480936
-4.78787e-05
0.000831052
0.00222574
0.00306656
0.00380092
0.00389736
0.00410955
0.00603266
0.00564245
0.00803246
0.0085853
0.0126898
0.0139796
0.0156506
0.0167487
0.0173842
0.0184446
-6.058e-05
0.000633177
-0.000446815
8.92571e-06
0.000883637
0.0022237
0.00305402
0.0037982
0.00391841
0.00412261
0.00606712
0.00574043
0.00801964
0.00860327
0.0124942
0.0138853
0.0153587
0.0165235
0.0169798
0.01789
-6.17419e-05
0.000664306
-0.000411121
6.5775e-05
0.000938709
0.00221921
0.00304179
0.00379254
0.00393819
0.00413782
0.0060983
0.00584024
0.00799772
0.0086229
0.0122887
0.0137812
0.0150663
0.0162615
0.0165864
0.0173316
-6.19829e-05
0.000695636
-0.000373534
0.000122406
0.000996189
0.00221238
0.00302998
0.00378444
0.0039563
0.00415551
0.0061257
0.00594113
0.00796708
0.0086406
0.0120758
0.0136633
0.0147753
0.0159652
0.0162001
0.0167749
-6.12647e-05
0.000726865
-0.000333835
0.000178584
0.00105608
0.00220335
0.00301852
0.00377439
0.00397229
0.00417592
0.00614903
0.00604209
0.00792825
0.00865345
0.0118575
0.0135284
0.0144868
0.0156375
0.0158166
0.0162259
-5.94041e-05
0.000757688
-0.000291864
0.00023409
0.00111835
0.00219234
0.00300718
0.0037629
0.00398575
0.00419913
0.00616819
0.0061421
0.00788196
0.00865889
0.0116358
0.0133736
0.0142014
0.0152828
0.0154312
0.0156885
-5.62031e-05
0.000787786
-0.00024743
0.000288715
0.00118289
0.00217965
0.00299557
0.00375047
0.00399626
0.00422499
0.00618329
0.00623998
0.00782902
0.00865466
0.0114124
0.0131971
0.0139185
0.0149062
0.0150399
0.0151651
-5.1437e-05
0.00081685
-0.000200416
0.000342282
0.00124957
0.00216572
0.00298319
0.00373756
0.00400343
0.0042531
0.00619456
0.00633443
0.00777018
0.0086386
0.011189
0.0129978
0.0136365
0.0145127
0.0146399
0.0146561
-4.48773e-05
0.00084457
-0.000150741
0.000394663
0.00131818
0.00215105
0.00296941
0.00372458
0.00400709
0.00428283
0.00620229
0.0064241
0.00770622
0.00860879
0.0109667
0.012776
0.0133526
0.0141071
0.0142299
0.0141599
-3.62877e-05
0.000870656
-9.83944e-05
0.000445751
0.00138836
0.00213628
0.00295366
0.0037118
0.00400717
0.00431345
0.00620693
0.00650771
0.00763782
0.00856374
0.0107459
0.0125333
0.0130641
0.013693
0.01381
0.0136742
-2.53907e-05
0.000894844
-4.34731e-05
0.000495512
0.0014597
0.00212212
0.00293544
0.00369932
0.00400363
0.00434403
0.00620891
0.00658413
0.0075654
0.0085023
0.0105265
0.012272
0.0127684
0.0132733
0.0133809
0.0131977
-1.19471e-05
0.000916888
1.39822e-05
0.000544042
0.00153158
0.0021093
0.00291432
0.00368712
0.00399656
0.00437341
0.00620857
0.00665231
0.00748904
0.00842379
0.0103084
0.0119945
0.0124634
0.0128506
0.0129429
0.012729
4.25821e-06
0.000936611
7.37657e-05
0.000591418
0.0016034
0.00209866
0.00288906
0.00367519
0.00398624
0.0044002
0.00620598
0.00671158
0.0074084
0.00832748
0.0100906
0.0117043
0.0121478
0.0124257
0.0124968
0.0122675
2.3513e-05
0.000953953
0.000135423
0.000637628
0.00167467
0.00209114
0.00286193
0.00366341
0.00397324
0.00442298
0.00620074
0.00676179
0.0073234
0.00821233
0.00987209
0.0114049
0.0118207
0.0119987
0.0120443
0.011813
4.60407e-05
0.000968957
0.00019856
0.000682737
0.0017448
0.00208755
0.00283208
0.00365138
0.0039582
0.0044403
0.00619212
0.00680282
0.0072344
0.00807787
0.00965067
0.0110999
0.0114831
0.0115689
0.0115859
0.0113652
7.19531e-05
0.000981745
0.000262789
0.000726997
0.00181332
0.00208847
0.00279907
0.00363845
0.00394192
0.0044509
0.00617876
0.00683429
0.00714199
0.00792447
0.00942386
0.0107919
0.0111367
0.0111363
0.0111217
0.0109224
0.00010139
0.000992491
0.000327691
0.00077049
0.00187967
0.0020945
0.00276292
0.00362376
0.00392553
0.00445417
0.00615858
0.00685548
0.007047
0.00775305
0.00918887
0.0104819
0.0107836
0.0107022
0.0106527
0.0104816
0.000134428
0.0010015
0.000392895
0.0008132
0.00194322
0.00210632
0.00272387
0.00360615
0.0039101
0.0044504
0.00612955
0.00686496
0.00694989
0.00756518
0.00894307
0.0101702
0.0104259
0.0102681
0.0101803
0.0100396
0.000171124
0.00100907
0.000457941
0.000855421
0.00200333
0.00212433
0.00268245
0.00358413
0.00389608
0.00444039
0.0060905
0.00686085
0.00685017
0.00736304
0.00868452
0.00985812
0.0100665
0.00983485
0.00970609
0.00959457
0.000211488
0.00101547
0.000522479
0.000897387
0.00205929
0.00214892
0.00263971
0.00355599
0.00388281
0.00442492
0.00604057
0.00684143
0.00674695
0.00714881
0.00841196
0.00954424
0.00970828
0.00940296
0.00923135
0.00914592
0.000255433
0.0010214
0.000586439
0.000939226
0.00211018
0.00218035
0.00259687
0.00352014
0.00386907
0.00440482
0.00597917
0.0068054
0.00663946
0.00692429
0.00812469
0.00922662
0.00935356
0.00897431
0.00875672
0.00869427
0.000302975
0.00102614
0.000649754
0.000981605
0.00215495
0.00221835
0.00255543
0.00347538
0.00385323
0.00438093
0.00590651
0.0067517
0.00652716
0.00669139
0.00782172
0.00890248
0.00900381
0.00855148
0.00828308
0.00824193
0.000354138
0.00103008
0.000712056
0.00102542
0.00219275
0.00226189
0.00251777
0.00342113
0.003833
0.00435363
0.00582283
0.00667968
0.00640965
0.00645234
0.00750225
0.00856873
0.00866006
0.00813796
0.00781071
0.00778982
0.000408831
0.00103365
0.000772897
0.00107124
0.00222314
0.00230934
0.00248658
0.00335805
0.00380557
0.00432232
0.00572872
0.006589
0.00628611
0.00620978
0.0071667
0.00822206
0.00832235
0.00773932
0.00733996
0.00733373
0.000466847
0.00103724
0.000831862
0.00111955
0.00224585
0.00235842
0.00246365
0.00328796
0.00376827
0.00428507
0.00562449
0.0064798
0.0061563
0.00596703
0.00681751
0.00785877
0.00798683
0.00736074
0.00687569
0.00686767
0.000527854
0.00104181
0.000888064
0.00117025
0.00226182
0.00240637
0.00244897
0.00321376
0.00371996
0.00423876
0.00550916
0.00635307
0.00602069
0.00572707
0.00645823
0.00747641
0.00764659
0.00700285
0.00642767
0.00638996
0.000591335
0.00104887
0.000940358
0.00122271
0.00227304
0.00245106
0.00244183
0.00313802
0.0036609
0.00418114
0.00538127
0.00620919
0.00587979
0.00549233
0.00609309
0.00707585
0.00729448
0.00666064
0.00600633
0.00590754
0.000656535
0.00105963
0.000988138
0.00127557
0.00228145
0.00248965
0.00244012
0.00306322
0.00359269
0.00411168
0.00523872
0.00604684
0.00573393
0.00526595
0.0057271
0.00665837
0.00692858
0.00632619
0.00561462
0.00543345
0.00072261
0.00107543
0.00103143
0.00132607
0.00229026
0.00251668
0.00243987
0.00298975
0.00351817
0.00403075
0.00508011
0.00586486
0.00558165
0.00505059
0.00536573
0.00622542
0.00654564
0.00599275
0.0052482
0.00498324
0.000788641
0.00109733
0.00107062
0.00137156
0.00230143
0.00254112
0.00243699
0.00291601
0.00343959
0.0039398
0.00490733
0.00566304
0.00541892
0.00484593
0.00501523
0.00578171
0.00614468
0.00565724
0.00489893
0.0045628
0.000853901
0.00112536
0.00110746
0.00140973
0.00231296
0.0025647
0.0024301
0.00283943
0.0033569
0.00384273
0.00472475
0.0054417
0.00524102
0.00464826
0.00468183
0.00533532
0.00572333
0.00531636
0.00456048
0.0041676
0.000917875
0.00115908
0.0011447
0.00143846
0.00232208
0.00259065
0.00242077
0.00275558
0.00326721
0.00374406
0.00453811
0.00520319
0.00504328
0.00445152
0.0043678
0.00489597
0.00528379
0.00496435
0.00423234
0.00379165
0.000980217
0.00119797
0.00118464
0.00145718
0.00232479
0.00261994
0.0024104
0.00266116
0.00316716
0.00364534
0.00435431
0.00495367
0.0048234
0.00424875
0.00406959
0.00447163
0.00483368
0.0045973
0.00391361
0.00343281
0.00104093
0.00124085
0.00122937
0.00146707
0.00231509
0.0026499
0.00240386
0.00255865
0.00305151
0.00354267
0.0041788
0.00470051
0.0045837
0.00403375
0.00378135
0.00406445
0.00438294
0.00421329
0.0035975
0.0030928
0.00110026
0.00128632
0.00127988
0.00146998
0.00228817
0.0026765
0.00240724
0.0024527
0.0029153
0.00343084
0.00401341
0.00445201
0.00432956
0.00380307
0.00349781
0.00367361
0.0039392
0.00381735
0.00328463
0.00277313
0.00115851
0.0013335
0.00133572
0.0014688
0.00224216
0.00269408
0.00242278
0.00235015
0.00275873
0.00330075
0.00385384
0.00421649
0.00406866
0.00355772
0.00321467
0.00329737
0.0035055
0.00341369
0.0029583
0.00246986
0.00121616
0.00138071
0.00139558
0.0014678
0.00217745
0.00269196
0.00244761
0.0022629
0.00258845
0.00314223
0.00369205
0.00399816
0.00381222
0.00330177
0.00292751
0.0029321
0.00308366
0.00300816
0.00262284
0.00217743
0.00127388
0.00142663
0.00145747
0.00147071
0.00209534
0.00266263
0.0024763
0.00219991
0.0024128
0.00295263
0.0035152
0.00379229
0.00357112
0.00304297
0.00263573
0.0025726
0.0026734
0.00260625
0.00227962
0.00188963
0.00133208
0.00146917
0.00151932
0.00148037
0.00199933
0.00260272
0.0025018
0.0021624
0.00224686
0.00273823
0.00330995
0.00358978
0.00334959
0.0027935
0.0023441
0.0022168
0.0022715
0.00221043
0.00193122
0.00159963
0.00139118
0.00150778
0.00157756
0.00149885
0.00189614
0.00251097
0.00251346
0.00214574
0.00210391
0.00250804
0.00307091
0.00337613
0.00314232
0.002563
0.00206163
0.00186714
0.00187402
0.00181918
0.00158197
0.00130441
0.00145089
0.00154252
0.0016271
0.00152704
0.00179523
0.00238953
0.00249955
0.00214385
0.00198922
0.00227871
0.00280342
0.00313753
0.00294115
0.00235368
0.00179828
0.00152927
0.00148225
0.00142949
0.00123402
0.0010045
0.0015102
0.00157312
0.00166498
0.00156252
0.00170733
0.00224271
0.00245132
0.00214626
0.00190087
0.00206608
0.00251742
0.00286673
0.002732
0.00216123
0.0015601
0.00121251
0.0011018
0.00104052
0.000885504
0.000702132
0.00156799
0.00160032
0.00168895
0.00160068
0.00163908
0.00208202
0.00236536
0.00213925
0.00183403
0.00187794
0.00223011
0.0025681
0.0025
0.00197797
0.00134735
0.000924078
0.000740828
0.00065638
0.000533973
0.000398277
0.00162291
0.00162498
0.00170024
0.00163396
0.00159139
0.00192205
0.00224386
0.00211016
0.00178331
0.00171633
0.00195778
0.00225342
0.00223712
0.00178933
0.00115745
0.000667742
0.000407666
0.000284033
0.000179851
9.11217e-05
0.00167322
0.00164804
0.00170098
0.00165554
0.00156019
0.00177487
0.00209272
0.0020499
0.00173854
0.00157977
0.00170803
0.00193913
0.00195029
0.00158051
0.000980715
0.000443039
0.000108601
-6.61712e-05
-0.0001706
-0.000221123
0.00171761
0.00166943
0.00169339
0.00166181
0.00153978
0.00164716
0.00192356
0.00195549
0.00168766
0.0014657
0.00148538
0.0016377
0.00165128
0.00134693
0.000801379
0.000245657
-0.000153528
-0.000384561
-0.000507448
-0.000535485
0.00175493
0.00168881
0.0016797
0.00165229
0.00152278
0.00154004
0.00175035
0.00183055
0.0016199
0.00136738
0.0012933
0.00135787
0.00135176
0.00109686
0.000609596
6.4036e-05
-0.000382508
-0.000667857
-0.000819279
-0.000842089
0.0017842
0.00170453
0.00166279
0.00162862
0.00150146
0.00145082
0.00158434
0.00168176
0.00153012
0.00127408
0.00112785
0.00110785
0.00106343
0.000840023
0.000406337
-0.000112768
-0.00058371
-0.000918212
-0.00110222
-0.00113199
0.00180493
0.00171548
0.00164336
0.00159341
0.00147005
0.00137398
0.00143206
0.00151828
0.00141782
0.00117948
0.000983998
0.000890047
0.00079717
0.000584688
0.000197786
-0.000287461
-0.000762454
-0.00113539
-0.00135462
-0.00139896
0.00181667
0.00171971
0.0016226
0.00154952
0.00142664
0.00130378
0.00129544
0.00135052
0.00128423
0.00107882
0.000858605
0.000703085
0.000560657
0.000341554
-1.07852e-05
-0.000459629
-0.000922936
-0.00131782
-0.00157133
-0.00163603
0.00181953
0.00171694
0.00159829
0.00149893
0.00137133
0.00123439
0.00117389
0.00118898
0.00113635
0.000965323
0.000745874
0.000547173
0.000359359
0.000123715
-0.000210767
-0.000628845
-0.00107303
-0.00147296
-0.00175321
-0.00184026
0.00181294
0.00170603
0.00157021
0.00144431
0.00130588
0.00115982
0.00106152
0.00103986
0.00098534
0.000839996
0.000636076
0.000418433
0.000197286
-5.49593e-05
-0.000382307
-0.000780281
-0.00120791
-0.00160494
-0.00190298
-0.00201505
0.00179688
0.00168188
0.00153738
0.00138613
0.00123258
0.0010791
0.000953716
0.000898948
0.000837447
0.000711568
0.000526574
0.000308468
7.00699e-05
-0.000190758
-0.00050668
-0.000889176
-0.00130645
-0.00169929
-0.00200972
-0.00214923
0.00177295
0.00165597
0.00149409
0.00132216
0.00115151
0.000991594
0.000850152
0.00076671
0.000691329
0.000581545
0.000420298
0.000213049
-2.39759e-05
-0.000285981
-0.00058713
-0.000942981
-0.00134549
-0.00173567
-0.00205458
-0.0022188
0.00173775
0.0016165
0.00144693
0.0012565
0.00106572
0.000894739
0.000745294
0.000645105
0.000553196
0.00044916
0.000316259
0.000131745
-8.7939e-05
-0.000331872
-0.000612673
-0.000938606
-0.00132001
-0.00170441
-0.00203043
-0.00221537
0.00169086
0.00156678
0.0013941
0.00118959
0.000975676
0.000791449
0.000631474
0.000524878
0.000427974
0.000325083
0.000206049
4.42817e-05
-0.000148403
-0.000355692
-0.00060393
-0.000891759
-0.00124279
-0.00162318
-0.00195984
-0.00217702
0.00163803
0.00150899
0.00132562
0.00111436
0.000892962
0.00070534
0.000522567
0.000398439
0.000311777
0.000253345
0.000209461
0.000137211
2.41587e-05
-0.000110199
-0.000304154
-0.000550054
-0.000855168
-0.00122342
-0.00159896
-0.00191676
0.00157558
0.0014389
0.00124687
0.00102769
0.000793897
0.000569137
0.000385829
0.000239676
6.32046e-05
-0.000125575
-0.000271426
-0.000315007
-0.000230323
-9.974e-05
-6.19292e-05
-0.000142013
-0.000258134
-0.000344579
-0.000383566
-0.000428804
0.00149636
0.00135345
0.00116779
0.000961049
0.000732144
0.000490007
0.000275555
8.34957e-05
-1.17226e-05
2.55398e-05
0.000136622
0.000215871
0.000209525
0.000157915
7.76297e-05
-9.95944e-06
-6.40442e-05
-0.000103391
-0.000182032
-0.000360432
0.00139957
0.00125687
0.00104975
0.000819726
0.000585998
0.000382066
0.000276055
0.000270257
0.000266494
0.000220254
0.000152324
7.03724e-05
-4.32747e-05
-0.000138428
-0.000204563
-0.000243708
-0.000234299
-0.000171915
-0.000106826
-0.000126634
0.0012702
0.0011611
0.00102545
0.000893105
0.000746417
0.000622614
0.000477216
0.00036452
0.000283366
0.000205304
0.000131524
0.000100293
5.07921e-05
-1.30781e-05
-9.96037e-05
-0.000274243
-0.000567545
-0.000979231
-0.00147081
-0.0019562
0.00108829
0.000964421
0.000929333
0.000902872
0.000803101
0.000623884
0.00045407
0.000305604
0.000200747
0.000124186
4.08568e-05
-2.65464e-06
-3.55644e-05
-8.04127e-05
-0.000104668
-0.000108009
-9.61335e-05
-6.83791e-05
-5.76215e-05
-0.000134498
0.000983716
0.000872048
0.000880386
0.000917779
0.000895654
0.000771874
0.000598482
0.000430102
0.000303383
0.000215556
0.000120412
6.75287e-05
6.12267e-05
5.58716e-05
6.54664e-05
0.000102128
0.000135028
0.000121116
1.63255e-05
-0.000235874
0.0375447
0.0277462
0.0146788
0.00600628
0.00288304
0.00266178
0.00306456
0.00328141
0.00305077
0.00234468
0.00142397
0.000622765
-1.10798e-05
-0.000650192
-0.00137578
-0.00215738
-0.00292137
-0.0035861
-0.00414943
-0.00464044
-0.00504835
-0.00539801
-0.00578056
-0.00625458
-0.00675794
-0.00720018
-0.00761356
-0.00810292
-0.00867455
-0.0092034
-0.00963317
-0.0100849
-0.0106298
-0.0111495
-0.0115795
-0.0120248
-0.012537
-0.01304
-0.0135177
-0.014011
-0.0145212
-0.0150448
-0.0156013
-0.0161774
-0.0167472
-0.0173095
-0.0178751
-0.0184316
-0.0189511
-0.0194666
-0.0200313
-0.0206693
-0.0213255
-0.0219629
-0.022619
-0.0233042
-0.0239417
-0.0245728
-0.0252444
-0.0259344
-0.0266124
-0.0273033
-0.0280235
-0.0287579
-0.0295083
-0.030317
-0.0311546
-0.0319499
-0.0327449
-0.033542
-0.0343481
-0.0351803
-0.0360671
-0.0369671
-0.0378874
-0.0388035
-0.0397245
-0.0406706
-0.0416495
-0.0426449
-0.043645
-0.0446703
-0.0457123
-0.0467561
-0.0478285
-0.0489042
-0.0500202
-0.0511288
-0.052265
-0.0533997
-0.0545582
-0.0557543
-0.0569718
-0.0582257
-0.0594703
-0.0608016
-0.0620493
-0.0634512
-0.0646649
-0.0656559
0.0357221
0.0275216
0.0147649
0.00613355
0.00296609
0.0027051
0.00309203
0.0033024
0.0030677
0.00235834
0.00143484
0.000631676
-3.32964e-06
-0.000643384
-0.00136987
-0.00215228
-0.002917
-0.00358229
-0.00414602
-0.00463741
-0.00504562
-0.00539541
-0.00577805
-0.0062523
-0.00675599
-0.00719844
-0.00761185
-0.00810124
-0.00867308
-0.00920219
-0.00963204
-0.0100838
-0.0106288
-0.0111486
-0.0115787
-0.012024
-0.0125362
-0.0130394
-0.0135171
-0.0140104
-0.0145206
-0.0150442
-0.0156007
-0.0161769
-0.0167467
-0.017309
-0.0178746
-0.0184311
-0.0189507
-0.0194662
-0.0200308
-0.0206688
-0.021325
-0.0219625
-0.0226186
-0.0233038
-0.0239414
-0.0245724
-0.025244
-0.0259341
-0.0266121
-0.027303
-0.0280233
-0.0287576
-0.0295081
-0.0303167
-0.0311543
-0.0319497
-0.0327447
-0.0335418
-0.0343479
-0.0351801
-0.0360669
-0.0369669
-0.0378872
-0.0388033
-0.0397243
-0.0406704
-0.0416494
-0.0426448
-0.0436449
-0.0446702
-0.0457122
-0.046756
-0.0478284
-0.0489041
-0.0500201
-0.0511287
-0.0522649
-0.0533996
-0.0545581
-0.0557542
-0.0569717
-0.0582256
-0.0594702
-0.0608015
-0.0620492
-0.0634512
-0.0646649
-0.0656559
0.0343144
0.0274208
0.0150188
0.00640227
0.00311788
0.00276446
0.00311732
0.00331908
0.00308162
0.00237062
0.00144597
0.000641687
5.4065e-06
-0.000635994
-0.0013637
-0.00214717
-0.00291281
-0.00357873
-0.00414286
-0.00463463
-0.0050431
-0.00539299
-0.0057757
-0.00625017
-0.00675418
-0.00719681
-0.00761025
-0.00809972
-0.00867178
-0.0092011
-0.00963096
-0.0100827
-0.0106279
-0.0111479
-0.011578
-0.0120232
-0.0125356
-0.0130388
-0.0135165
-0.0140098
-0.01452
-0.0150437
-0.0156002
-0.0161764
-0.0167462
-0.0173086
-0.0178741
-0.0184307
-0.0189503
-0.0194658
-0.0200304
-0.0206685
-0.0213247
-0.0219622
-0.0226183
-0.0233035
-0.0239411
-0.0245721
-0.0252437
-0.0259338
-0.0266119
-0.0273028
-0.028023
-0.0287574
-0.0295078
-0.0303165
-0.0311541
-0.0319495
-0.0327445
-0.0335416
-0.0343477
-0.03518
-0.0360667
-0.0369667
-0.0378871
-0.0388032
-0.0397242
-0.0406703
-0.0416492
-0.0426447
-0.0436447
-0.0446701
-0.0457121
-0.0467559
-0.0478283
-0.048904
-0.05002
-0.0511286
-0.0522648
-0.0533995
-0.054558
-0.0557541
-0.0569716
-0.0582255
-0.0594702
-0.0608015
-0.0620491
-0.0634511
-0.064665
-0.0656559
0.0329777
0.0272471
0.0153045
0.0067268
0.0033122
0.00284108
0.00314838
0.00333958
0.00309795
0.00238429
0.00145891
0.000654004
1.61547e-05
-0.000626936
-0.00135581
-0.00214031
-0.00290713
-0.003574
-0.00413868
-0.00463086
-0.00503982
-0.00539013
-0.00577303
-0.00624759
-0.00675185
-0.00719482
-0.00760848
-0.00809802
-0.00867019
-0.00919968
-0.00962966
-0.0100815
-0.0106268
-0.011147
-0.0115771
-0.0120223
-0.0125348
-0.0130381
-0.0135159
-0.0140092
-0.0145195
-0.0150431
-0.0155997
-0.0161759
-0.0167458
-0.0173081
-0.0178737
-0.0184304
-0.0189499
-0.0194653
-0.02003
-0.020668
-0.0213244
-0.0219619
-0.022618
-0.0233032
-0.0239409
-0.0245718
-0.0252434
-0.0259336
-0.0266116
-0.0273025
-0.0280228
-0.0287571
-0.0295075
-0.0303162
-0.031154
-0.0319493
-0.0327443
-0.0335414
-0.0343475
-0.0351798
-0.0360665
-0.0369666
-0.0378869
-0.038803
-0.0397241
-0.0406701
-0.0416491
-0.0426445
-0.0436446
-0.04467
-0.045712
-0.0467558
-0.0478282
-0.0489039
-0.0500199
-0.0511285
-0.0522647
-0.0533995
-0.0545579
-0.055754
-0.0569715
-0.0582254
-0.0594701
-0.0608014
-0.0620491
-0.0634511
-0.0646651
-0.065656
0.0316065
0.0269516
0.0155857
0.00707449
0.00352425
0.00292541
0.00318232
0.00336301
0.00311687
0.00239982
0.0014743
0.000669474
2.9637e-05
-0.000615834
-0.00134595
-0.00213116
-0.00289914
-0.00356729
-0.00413262
-0.00462509
-0.00503483
-0.00538627
-0.00576967
-0.00624403
-0.00674837
-0.00719209
-0.00760642
-0.00809594
-0.00866782
-0.00919745
-0.0096279
-0.01008
-0.0106255
-0.0111457
-0.0115758
-0.0120212
-0.0125339
-0.0130373
-0.0135151
-0.0140085
-0.0145188
-0.0150425
-0.0155991
-0.0161754
-0.0167453
-0.0173077
-0.0178733
-0.01843
-0.0189495
-0.0194648
-0.0200295
-0.0206676
-0.021324
-0.0219615
-0.0226176
-0.0233029
-0.0239405
-0.0245714
-0.0252431
-0.0259333
-0.0266113
-0.0273022
-0.0280225
-0.0287568
-0.0295072
-0.0303159
-0.0311538
-0.0319491
-0.0327441
-0.0335412
-0.0343473
-0.0351795
-0.0360663
-0.0369664
-0.0378868
-0.0388029
-0.0397239
-0.04067
-0.041649
-0.0426444
-0.0436445
-0.0446698
-0.0457119
-0.0467557
-0.0478281
-0.0489038
-0.0500198
-0.0511284
-0.0522646
-0.0533994
-0.0545578
-0.0557539
-0.0569714
-0.0582254
-0.05947
-0.0608014
-0.062049
-0.0634511
-0.0646654
-0.0656561
0.0302154
0.0265531
0.0158662
0.00744363
0.00374861
0.00301343
0.00321624
0.00338712
0.00313735
0.00241675
0.00149128
0.000686881
4.48182e-05
-0.000603428
-0.00133472
-0.00212021
-0.00288912
-0.00355869
-0.00412457
-0.00461692
-0.00502757
-0.00538094
-0.00576532
-0.00623909
-0.0067432
-0.0071883
-0.00760412
-0.00809348
-0.00866436
-0.00919399
-0.00962547
-0.0100783
-0.0106236
-0.0111437
-0.0115741
-0.0120198
-0.0125326
-0.013036
-0.013514
-0.0140076
-0.014518
-0.0150418
-0.0155984
-0.0161748
-0.0167448
-0.0173072
-0.0178729
-0.0184295
-0.018949
-0.0194643
-0.0200289
-0.0206671
-0.0213235
-0.0219611
-0.0226172
-0.0233026
-0.0239402
-0.0245711
-0.0252428
-0.025933
-0.026611
-0.0273019
-0.0280222
-0.0287565
-0.0295069
-0.0303157
-0.0311536
-0.0319489
-0.0327439
-0.033541
-0.0343471
-0.0351793
-0.0360661
-0.0369662
-0.0378866
-0.0388027
-0.0397237
-0.0406698
-0.0416488
-0.0426443
-0.0436444
-0.0446697
-0.0457118
-0.0467555
-0.0478279
-0.0489037
-0.0500196
-0.0511283
-0.0522645
-0.0533993
-0.0545576
-0.0557538
-0.0569713
-0.0582253
-0.0594699
-0.0608013
-0.062049
-0.0634511
-0.0646657
-0.0656563
0.028842
0.0260715
0.0161447
0.0078314
0.00398262
0.00310331
0.00324861
0.00341054
0.00315885
0.00243496
0.00150917
0.000705013
6.06154e-05
-0.000590529
-0.00132298
-0.00210852
-0.00287812
-0.00354902
-0.00411512
-0.00460671
-0.00501815
-0.00537405
-0.00575974
-0.00623246
-0.006736
-0.00718321
-0.00760153
-0.0080907
-0.0086597
-0.00918908
-0.00962224
-0.0100761
-0.0106211
-0.0111408
-0.0115718
-0.0120181
-0.0125309
-0.0130343
-0.0135125
-0.0140063
-0.0145169
-0.0150408
-0.0155975
-0.0161741
-0.0167443
-0.0173068
-0.0178724
-0.0184289
-0.0189484
-0.0194637
-0.0200283
-0.0206665
-0.021323
-0.0219607
-0.0226168
-0.0233022
-0.0239398
-0.0245707
-0.0252424
-0.0259326
-0.0266106
-0.0273015
-0.0280218
-0.0287562
-0.0295066
-0.0303153
-0.0311533
-0.0319487
-0.0327436
-0.0335408
-0.0343468
-0.035179
-0.0360659
-0.036966
-0.0378864
-0.0388026
-0.0397235
-0.0406696
-0.0416486
-0.0426441
-0.0436442
-0.0446696
-0.0457116
-0.0467554
-0.0478278
-0.0489036
-0.0500195
-0.0511282
-0.0522644
-0.0533992
-0.0545575
-0.0557537
-0.0569712
-0.0582252
-0.0594697
-0.0608012
-0.0620489
-0.063451
-0.064666
-0.0656567
0.027513
0.0255136
0.0164079
0.0082311
0.00422461
0.0031946
0.00327901
0.00343258
0.00318097
0.00245423
0.00152756
0.000723309
7.66262e-05
-0.000577349
-0.00131101
-0.00209666
-0.00286699
-0.00353916
-0.00410511
-0.00459532
-0.00500725
-0.00536593
-0.00575302
-0.00622418
-0.00672679
-0.0071767
-0.0075985
-0.0080876
-0.00865401
-0.00918288
-0.00961829
-0.0100735
-0.0106177
-0.011137
-0.0115689
-0.012016
-0.0125287
-0.0130322
-0.0135107
-0.0140048
-0.0145155
-0.0150394
-0.0155963
-0.016173
-0.0167436
-0.0173063
-0.0178719
-0.0184283
-0.0189478
-0.0194631
-0.0200276
-0.0206657
-0.0213223
-0.0219602
-0.0226164
-0.0233017
-0.0239394
-0.0245703
-0.025242
-0.0259322
-0.0266102
-0.0273012
-0.0280215
-0.0287558
-0.0295061
-0.030315
-0.0311531
-0.0319484
-0.0327433
-0.0335405
-0.0343465
-0.0351787
-0.0360656
-0.0369657
-0.0378862
-0.0388023
-0.0397233
-0.0406694
-0.0416484
-0.0426439
-0.043644
-0.0446694
-0.0457115
-0.0467553
-0.0478277
-0.0489034
-0.0500194
-0.0511281
-0.0522642
-0.053399
-0.0545574
-0.0557536
-0.056971
-0.0582251
-0.0594696
-0.060801
-0.0620488
-0.0634509
-0.0646664
-0.0656571
0.0262483
0.0248858
0.0166415
0.00863694
0.00447494
0.00328823
0.00330785
0.00345289
0.0032032
0.00247434
0.00154627
0.000741574
9.26758e-05
-0.000563998
-0.00129887
-0.00208478
-0.002856
-0.0035295
-0.00409511
-0.0045835
-0.00499564
-0.00535708
-0.00574546
-0.0062146
-0.00671595
-0.00716893
-0.00759491
-0.00808411
-0.00864753
-0.0091758
-0.00961388
-0.0100706
-0.0106135
-0.0111321
-0.0115655
-0.0120136
-0.0125262
-0.0130296
-0.0135086
-0.014003
-0.0145138
-0.0150378
-0.0155946
-0.0161715
-0.0167425
-0.0173057
-0.0178713
-0.0184277
-0.0189471
-0.0194625
-0.0200268
-0.0206647
-0.0213214
-0.0219595
-0.0226158
-0.0233011
-0.0239388
-0.0245699
-0.0252417
-0.0259318
-0.0266098
-0.0273008
-0.028021
-0.0287553
-0.0295057
-0.0303146
-0.0311528
-0.0319481
-0.032743
-0.0335402
-0.0343461
-0.0351783
-0.0360652
-0.0369654
-0.0378859
-0.038802
-0.039723
-0.0406691
-0.0416482
-0.0426437
-0.0436438
-0.0446692
-0.0457113
-0.0467551
-0.0478275
-0.0489033
-0.0500193
-0.0511279
-0.0522641
-0.0533989
-0.0545572
-0.0557535
-0.0569709
-0.0582249
-0.0594694
-0.0608008
-0.0620488
-0.0634507
-0.0646668
-0.0656576
0.0250637
0.0241992
0.0168335
0.00904413
0.00473504
0.00338572
0.00333568
0.00347102
0.00322486
0.00249497
0.00156525
0.000759727
0.000108583
-0.000550681
-0.00128671
-0.00207288
-0.00284508
-0.00352006
-0.00408535
-0.00457168
-0.00498379
-0.00534791
-0.00573747
-0.00620421
-0.00670397
-0.00716014
-0.0075907
-0.00808018
-0.00864045
-0.00916815
-0.00960928
-0.0100676
-0.0106087
-0.0111264
-0.0115614
-0.0120109
-0.0125233
-0.0130267
-0.0135063
-0.0140012
-0.014512
-0.0150359
-0.0155926
-0.0161695
-0.0167409
-0.0173046
-0.0178704
-0.0184269
-0.0189465
-0.019462
-0.0200261
-0.0206635
-0.0213202
-0.0219586
-0.022615
-0.0233003
-0.0239382
-0.0245695
-0.0252413
-0.0259313
-0.0266094
-0.0273004
-0.0280206
-0.0287548
-0.0295051
-0.0303141
-0.0311524
-0.0319478
-0.0327427
-0.0335399
-0.0343458
-0.0351778
-0.0360648
-0.0369651
-0.0378856
-0.0388017
-0.0397226
-0.0406688
-0.0416478
-0.0426434
-0.0436435
-0.0446689
-0.0457111
-0.0467549
-0.0478273
-0.0489031
-0.0500191
-0.0511278
-0.052264
-0.0533988
-0.0545571
-0.0557533
-0.0569707
-0.0582248
-0.0594692
-0.0608006
-0.0620487
-0.0634504
-0.0646672
-0.0656583
0.0239704
0.0234697
0.0169741
0.00944788
0.00500639
0.00348853
0.00336276
0.00348629
0.00324505
0.00251581
0.00158457
0.000777786
0.000124235
-0.000537553
-0.00127459
-0.00206092
-0.0028341
-0.0035107
-0.0040758