/*--------------------------------*- C++ -*----------------------------------*\
| =========                 |                                                 |
| \\      /  F ield         | OpenFOAM: The Open Source CFD Toolbox           |
|  \\    /   O peration     | Version:  2506                                  |
|   \\  /    A nd           | Website:  www.openfoam.com                      |
|    \\/     M anipulation  |                                                 |
\*---------------------------------------------------------------------------*/
FoamFile
{
    version     2.0;
    format      ascii;
    arch        "LSB;label=32;scalar=64";
    class       volVectorField;
    location    "4.65";
    object      U;
}
// * * * * * * * * * * * * * * * * * * * * * * * * * * * * * * * * * * * * * //

dimensions      [0 1 -1 0 0 0 0];

internalField   nonuniform List<vector> 
9600
(
(0.770611 -0.00212347 0)
(1.14363 0.00533868 0)
(0.883675 -0.0211566 0)
(1.17998 0.000234028 0)
(1.00023 0.0135743 0)
(1.08398 0.0212934 0)
(0.984115 -0.00449631 0)
(1.01397 -0.0163586 0)
(0.922037 -0.0349411 0)
(1.01044 -0.0367159 0)
(0.984652 -0.0287931 0)
(1.08334 -0.0238883 0)
(1.025 0.00469757 0)
(1.09123 -0.00824795 0)
(0.974694 0.0296356 0)
(1.0912 -0.00028942 0)
(0.931218 0.0246562 0)
(1.10445 -0.00906776 0)
(0.900768 0.012155 0)
(1.11971 -0.020231 0)
(0.792947 -0.00159868 0)
(1.12236 0.00464993 0)
(0.902744 -0.0217799 0)
(1.16925 -0.000629841 0)
(1.01494 0.0140432 0)
(1.07264 0.0214566 0)
(1.01149 -0.0036835 0)
(1.00079 -0.015403 0)
(0.946141 -0.0348884 0)
(0.976367 -0.0377725 0)
(0.983158 -0.0303727 0)
(1.05493 -0.0246222 0)
(1.03481 0.00405705 0)
(1.0692 -0.00685409 0)
(0.998309 0.0292493 0)
(1.05466 0.00135857 0)
(0.985364 0.0240328 0)
(1.04402 -0.00862784 0)
(1.00172 0.0127521 0)
(1.02525 -0.0221545 0)
(0.831456 -0.00112251 0)
(1.08571 0.00403994 0)
(0.921165 -0.0222701 0)
(1.14145 -0.00150052 0)
(1.04007 0.0148774 0)
(1.06605 0.0216912 0)
(1.02824 -0.00293494 0)
(0.998483 -0.0147581 0)
(0.962279 -0.0343589 0)
(0.96113 -0.0380115 0)
(0.981746 -0.0313559 0)
(1.02733 -0.025387 0)
(1.03869 0.00370318 0)
(1.05366 -0.0060408 0)
(1.01473 0.0290636 0)
(1.04665 0.00182217 0)
(1.01726 0.0230147 0)
(1.05112 -0.00770851 0)
(1.03932 0.0106689 0)
(1.05126 -0.016216 0)
(0.877308 -0.000648256 0)
(1.04516 0.00357985 0)
(0.93639 -0.0228108 0)
(1.10306 -0.00244132 0)
(1.06263 0.0154642 0)
(1.06717 0.0219164 0)
(1.03939 -0.00217819 0)
(1.00229 -0.0139986 0)
(0.973883 -0.0337716 0)
(0.957107 -0.0382438 0)
(0.975829 -0.0323201 0)
(1.00639 -0.0262755 0)
(1.03239 0.00313267 0)
(1.04351 -0.00559729 0)
(1.02322 0.028999 0)
(1.04719 0.00182877 0)
(1.03773 0.0226192 0)
(1.06042 -0.00818014 0)
(1.05777 0.0104708 0)
(1.06237 -0.0144263 0)
(0.921283 -0.000177704 0)
(1.01243 0.00330318 0)
(0.94751 -0.023312 0)
(1.0651 -0.0035392 0)
(1.07381 0.0155736 0)
(1.07074 0.0222022 0)
(1.04593 -0.00139377 0)
(1.00831 -0.0132464 0)
(0.983554 -0.0330174 0)
(0.960518 -0.038142 0)
(0.970516 -0.032994 0)
(0.991349 -0.0271098 0)
(1.021 0.0022445 0)
(1.03494 -0.00532798 0)
(1.02685 0.0284073 0)
(1.05136 0.00195306 0)
(1.05139 0.0214364 0)
(1.0708 -0.00779364 0)
(1.06931 0.00965804 0)
(1.07085 -0.0123972 0)
(0.956584 0.000231723 0)
(0.9939 0.00323577 0)
(0.955859 -0.0237341 0)
(1.03487 -0.0047036 0)
(1.07263 0.0153112 0)
(1.07155 0.0225189 0)
(1.04906 -0.000621853 0)
(1.01409 -0.0125174 0)
(0.991492 -0.0322483 0)
(0.966028 -0.0378918 0)
(0.967873 -0.0334173 0)
(0.980841 -0.0278687 0)
(1.00953 0.00123295 0)
(1.027 -0.00538289 0)
(1.02933 0.0274714 0)
(1.05585 0.00173088 0)
(1.06278 0.0200234 0)
(1.07895 -0.00740085 0)
(1.07801 0.00867179 0)
(1.07591 -0.0100559 0)
(0.980371 0.000532468 0)
(0.988982 0.00333052 0)
(0.963114 -0.0240219 0)
(1.01378 -0.00578726 0)
(1.0626 0.0148128 0)
(1.06796 0.0227572 0)
(1.04948 9.38901e-05 0)
(1.01894 -0.0118418 0)
(0.998051 -0.0314359 0)
(0.97163 -0.0374831 0)
(0.967712 -0.0335972 0)
(0.974272 -0.028492 0)
(1.00072 0.000146265 0)
(1.02035 -0.00574139 0)
(1.03248 0.0261795 0)
(1.06017 0.00131152 0)
(1.07244 0.0184929 0)
(1.08489 -0.00683853 0)
(1.08363 0.00780174 0)
(1.07819 -0.00746841 0)
(0.993455 0.000707359 0)
(0.992679 0.00351343 0)
(0.970098 -0.0241365 0)
(0.999722 -0.00671109 0)
(1.04792 0.0141676 0)
(1.06088 0.0228452 0)
(1.04793 0.000706049 0)
(1.02283 -0.0112426 0)
(1.00339 -0.0306133 0)
(0.976553 -0.036994 0)
(0.968977 -0.0336122 0)
(0.970823 -0.0290062 0)
(0.995667 -0.00101804 0)
(1.01595 -0.0063643 0)
(1.0368 0.0245281 0)
(1.06421 0.000770916 0)
(1.07983 0.0168539 0)
(1.08803 -0.00607239 0)
(1.08554 0.00704033 0)
(1.07722 -0.00476355 0)
(0.998834 0.000768936 0)
(0.99945 0.00371858 0)
(0.976684 -0.0240713 0)
(0.989999 -0.00744712 0)
(1.03185 0.0134499 0)
(1.05208 0.022758 0)
(1.04525 0.00119016 0)
(1.02579 -0.0107286 0)
(1.00774 -0.0297621 0)
(0.980753 -0.0364383 0)
(0.970771 -0.0335076 0)
(0.969242 -0.0294655 0)
(0.994135 -0.00221531 0)
(1.01393 -0.00720491 0)
(1.04197 0.0225779 0)
(1.06738 0.000214359 0)
(1.08399 0.0151842 0)
(1.08765 -0.00504753 0)
(1.08317 0.00644595 0)
(1.07267 -0.00200646 0)
(0.999956 0.000748877 0)
(1.00561 0.00389282 0)
(0.982365 -0.0238472 0)
(0.982985 -0.00798013 0)
(1.01677 0.0127095 0)
(1.04323 0.0224935 0)
(1.04217 0.00153841 0)
(1.0277 -0.0103022 0)
(1.01116 -0.0288907 0)
(0.984438 -0.0358262 0)
(0.972661 -0.0332997 0)
(0.968275 -0.0299186 0)
(0.99464 -0.00346488 0)
(1.01308 -0.00821887 0)
(1.04644 0.020404 0)
(1.06827 -0.000248831 0)
(1.08361 0.0136037 0)
(1.08294 -0.00374518 0)
(1.07621 0.00608176 0)
(1.06447 0.000698436 0)
(0.999458 0.000679281 0)
(1.00972 0.00402041 0)
(0.986852 -0.0234954 0)
(0.978168 -0.00833119 0)
(1.00452 0.0119699 0)
(1.03552 0.0220568 0)
(1.03912 0.00176455 0)
(1.02838 -0.00995313 0)
(1.01359 -0.0280026 0)
(0.987777 -0.0351566 0)
(0.974606 -0.0329752 0)
(0.967251 -0.0303587 0)
(0.994989 -0.00481301 0)
(1.01129 -0.0093285 0)
(1.04755 0.0181 0)
(1.06501 -0.000524595 0)
(1.07745 0.0122029 0)
(1.07344 -0.00219493 0)
(1.06492 0.00594214 0)
(1.05303 0.00329607 0)
(0.998779 0.000583993 0)
(1.01174 0.00410504 0)
(0.99028 -0.0230532 0)
(0.975479 -0.00852873 0)
(0.996115 0.0112393 0)
(1.02938 0.0214779 0)
(1.03615 0.00190424 0)
(1.02778 -0.00966915 0)
(1.01498 -0.0271152 0)
(0.990777 -0.0344472 0)
(0.976674 -0.0325254 0)
(0.966269 -0.0307332 0)
(0.993385 -0.00618656 0)
(1.00692 -0.0104278 0)
(1.04296 0.0157761 0)
(1.05633 -0.000556521 0)
(1.06529 0.0110139 0)
(1.05951 -0.000484685 0)
(1.05032 0.0059711 0)
(1.03937 0.00567343 0)
(0.99843 0.000479389 0)
(1.01216 0.0041521 0)
(0.993028 -0.0225516 0)
(0.97468 -0.00862893 0)
(0.991358 0.0105236 0)
(1.02452 0.0208052 0)
(1.03312 0.00199008 0)
(1.02608 -0.00944094 0)
(1.0154 -0.0262524 0)
(0.993317 -0.0337202 0)
(0.978819 -0.0319593 0)
(0.965826 -0.0309628 0)
(0.989357 -0.00747839 0)
(0.999838 -0.0113978 0)
(1.03225 0.0135326 0)
(1.04267 -0.00035229 0)
(1.04851 0.0100009 0)
(1.04267 0.00125137 0)
(1.03421 0.00610963 0)
(1.02502 0.00765584 0)
(0.998438 0.000375643 0)
(1.01152 0.00416685 0)
(0.995412 -0.0220201 0)
(0.975198 -0.00866461 0)
(0.989063 0.00984489 0)
(1.02028 0.0200877 0)
(1.02991 0.00204549 0)
(1.02372 -0.0092643 0)
(1.01506 -0.0254349 0)
(0.995265 -0.0330073 0)
(0.980848 -0.0312977 0)
(0.966255 -0.0309916 0)
(0.983849 -0.00860155 0)
(0.991407 -0.0121267 0)
(1.01753 0.0114561 0)
(1.02629 2.37192e-05 0)
(1.02994 0.00909449 0)
(1.02531 0.00286035 0)
(1.0187 0.00629039 0)
(1.01168 0.00916739 0)
(0.998667 0.000278111 0)
(1.01033 0.0041527 0)
(0.997528 -0.0214793 0)
(0.976349 -0.00864721 0)
(0.987848 0.00922888 0)
(1.01623 0.0193564 0)
(1.02662 0.00207962 0)
(1.02121 -0.0091377 0)
(1.01429 -0.0246712 0)
(0.996589 -0.0323256 0)
(0.982547 -0.0305906 0)
(0.967455 -0.0308018 0)
(0.97843 -0.00950543 0)
(0.983518 -0.0125495 0)
(1.00232 0.00959439 0)
(1.01029 0.000487232 0)
(1.01276 0.00824485 0)
(1.00983 0.00421687 0)
(1.00559 0.00646822 0)
(1.00067 0.0101947 0)
(0.99896 0.000189783 0)
(1.00902 0.00411199 0)
(0.99931 -0.0209368 0)
(0.977619 -0.00859859 0)
(0.986868 0.00868268 0)
(1.01241 0.0186222 0)
(1.02352 0.00209214 0)
(1.01893 -0.00905557 0)
(1.01336 -0.0239596 0)
(0.997376 -0.0316712 0)
(0.983807 -0.0298815 0)
(0.969012 -0.0304037 0)
(0.974296 -0.0101923 0)
(0.977506 -0.0126621 0)
(0.989644 0.00795737 0)
(0.99712 0.000972056 0)
(0.999191 0.00741678 0)
(0.997767 0.00527783 0)
(0.995804 0.00662951 0)
(0.992618 0.0107786 0)
(0.999214 0.000111578 0)
(1.00787 0.00404535 0)
(1.00068 -0.0203971 0)
(0.978773 -0.00851338 0)
(0.985935 0.00821052 0)
(1.00908 0.0178792 0)
(1.02084 0.00207859 0)
(1.01705 -0.00901332 0)
(1.01247 -0.0232851 0)
(0.997787 -0.031035 0)
(0.984662 -0.0291813 0)
(0.970522 -0.0298458 0)
(0.971803 -0.0107086 0)
(0.973694 -0.0125196 0)
(0.980853 0.00651735 0)
(0.987786 0.00143217 0)
(0.989893 0.00661315 0)
(0.989473 0.00605065 0)
(0.9893 0.00678136 0)
(0.987376 0.0110117 0)
(0.999384 4.24247e-05 0)
(1.00698 0.00395542 0)
(1.00162 -0.0198554 0)
(0.979776 -0.00839601 0)
(0.98517 0.00780378 0)
(1.00648 0.0171205 0)
(1.01867 0.00203893 0)
(1.01556 -0.00900415 0)
(1.01167 -0.0226317 0)
(0.997972 -0.0304051 0)
(0.985219 -0.0284964 0)
(0.971788 -0.0291743 0)
(0.970659 -0.0111036 0)
(0.971668 -0.0121976 0)
(0.975655 0.00523052 0)
(0.981934 0.00184427 0)
(0.984253 0.00586848 0)
(0.984355 0.00656746 0)
(0.985401 0.00693496 0)
(0.98434 0.0110033 0)
(0.99947 -1.94448e-05 0)
(1.00633 0.00384531 0)
(1.00219 -0.0193061 0)
(0.980664 -0.00825377 0)
(0.984688 0.00744845 0)
(1.00462 0.016345 0)
(1.01698 0.00197831 0)
(1.0144 -0.00901688 0)
(1.01095 -0.0219941 0)
(0.998037 -0.0297666 0)
(0.985587 -0.0278235 0)
(0.972807 -0.0284231 0)
(0.970378 -0.0114259 0)
(0.970805 -0.0117607 0)
(0.972998 0.0040781 0)
(0.978582 0.00219271 0)
(0.981149 0.00521291 0)
(0.981467 0.00687577 0)
(0.983262 0.00709156 0)
(0.982798 0.0108348 0)
(0.999489 -7.52505e-05 0)
(1.00586 0.00371783 0)
(1.00248 -0.0187442 0)
(0.981474 -0.00810482 0)
(0.984486 0.00713318 0)
(1.00337 0.0155509 0)
(1.01567 0.00189997 0)
(1.01349 -0.00903854 0)
(1.01029 -0.0213706 0)
(0.998045 -0.0291086 0)
(0.985844 -0.0271579 0)
(0.973656 -0.0276157 0)
(0.970572 -0.0117026 0)
(0.970619 -0.011263 0)
(0.971858 0.003037 0)
(0.97678 0.00246441 0)
(0.979572 0.00466746 0)
(0.979969 0.00701409 0)
(0.98219 0.0072479 0)
(0.982173 0.0105771 0)
(0.999456 -0.000126081 0)
(1.00552 0.00357584 0)
(1.00256 -0.0181678 0)
(0.982229 -0.00795601 0)
(0.984502 0.00684829 0)
(1.00258 0.0147398 0)
(1.01463 0.00180856 0)
(1.01276 -0.00906015 0)
(1.00969 -0.0207573 0)
(0.998027 -0.0284275 0)
(0.986038 -0.0265006 0)
(0.974412 -0.0267678 0)
(0.971014 -0.0119406 0)
(0.970821 -0.0107481 0)
(0.971559 0.00209406 0)
(0.975885 0.0026516 0)
(0.978856 0.00422504 0)
(0.979302 0.00701366 0)
(0.98174 0.00739996 0)
(0.98209 0.0102852 0)
(0.999382 -0.000171908 0)
(1.00528 0.0034196 0)
(1.00249 -0.017575 0)
(0.982943 -0.00780465 0)
(0.984669 0.00658468 0)
(1.00211 0.0139144 0)
(1.01379 0.00170473 0)
(1.01215 -0.00907594 0)
(1.00912 -0.0201552 0)
(0.997994 -0.027721 0)
(0.986204 -0.0258505 0)
(0.975123 -0.0258964 0)
(0.971599 -0.0121462 0)
(0.971266 -0.0102378 0)
(0.971735 0.00123978 0)
(0.975537 0.00275838 0)
(0.978632 0.00387386 0)
(0.979141 0.00690458 0)
(0.981658 0.00752704 0)
(0.982319 0.0099817 0)
(0.999281 -0.000213087 0)
(1.00508 0.00325048 0)
(1.00233 -0.0169643 0)
(0.983626 -0.00766034 0)
(0.984945 0.00633578 0)
(1.00183 0.0130792 0)
(1.01307 0.00158746 0)
(1.0116 -0.00907873 0)
(1.00857 -0.019565 0)
(0.99795 -0.0269895 0)
(0.986365 -0.0252038 0)
(0.975814 -0.0250117 0)
(0.972276 -0.0123184 0)
(0.971872 -0.00975667 0)
(0.972197 0.000472916 0)
(0.975538 0.00278133 0)
(0.9787 0.00360648 0)
(0.979294 0.00670985 0)
(0.981797 0.00760873 0)
(0.982721 0.00968655 0)
(0.999171 -0.000249773 0)
(1.00491 0.00306963 0)
(1.00214 -0.0163361 0)
(0.984284 -0.00752625 0)
(0.985301 0.00609785 0)
(1.00168 0.0122372 0)
(1.01243 0.00145701 0)
(1.01108 -0.00906518 0)
(1.00805 -0.0189874 0)
(0.997893 -0.0262305 0)
(0.986536 -0.0245581 0)
(0.976496 -0.0241207 0)
(0.973018 -0.0124525 0)
(0.972581 -0.00930786 0)
(0.972832 -0.000205254 0)
(0.975761 0.00272328 0)
(0.97894 0.00340868 0)
(0.979637 0.00645598 0)
(0.982068 0.00764151 0)
(0.983206 0.00940442 0)
(0.99907 -0.000281243 0)
(1.00474 0.00287631 0)
(1.00193 -0.0156911 0)
(0.984921 -0.00739931 0)
(0.985716 0.00586596 0)
(1.00157 0.0113916 0)
(1.01182 0.0013111 0)
(1.01055 -0.00903203 0)
(1.00755 -0.0184236 0)
(0.997822 -0.0254477 0)
(0.986724 -0.0239091 0)
(0.977171 -0.0232305 0)
(0.973804 -0.0125462 0)
(0.973351 -0.00890119 0)
(0.973565 -0.000792314 0)
(0.976121 0.00258667 0)
(0.979274 0.00326342 0)
(0.980083 0.00616825 0)
(0.98241 0.00761596 0)
(0.983713 0.00913047 0)
(0.998994 -0.000307694 0)
(1.00454 0.00267375 0)
(1.00174 -0.0150313 0)
(0.98554 -0.0072835 0)
(0.986174 0.00563772 0)
(1.00147 0.0105526 0)
(1.01122 0.00114844 0)
(1.01 -0.00897542 0)
(1.00705 -0.0178735 0)
(0.997736 -0.024646 0)
(0.986933 -0.0232557 0)
(0.977837 -0.0223499 0)
(0.974618 -0.0125961 0)
(0.974151 -0.00854565 0)
(0.974345 -0.00129405 0)
(0.976558 0.00238793 0)
(0.979655 0.00314539 0)
(0.980577 0.00586979 0)
(0.982792 0.00753309 0)
(0.984212 0.00886725 0)
(0.998952 -0.000328786 0)
(1.00431 0.00246047 0)
(1.00156 -0.0143607 0)
(0.986143 -0.00717146 0)
(0.986659 0.00541186 0)
(1.00136 0.00972656 0)
(1.01063 0.00096819 0)
(1.00943 -0.00889666 0)
(1.00656 -0.0173368 0)
(0.99764 -0.0238258 0)
(0.98716 -0.0225964 0)
(0.978495 -0.0214811 0)
(0.975452 -0.0126042 0)
(0.97496 -0.008236 0)
(0.975146 -0.00171872 0)
(0.97704 0.00214292 0)
(0.980058 0.00302994 0)
(0.981091 0.00556943 0)
(0.983196 0.00739346 0)
(0.98469 0.00860342 0)
(0.998943 -0.000343693 0)
(1.00406 0.0022366 0)
(1.00141 -0.0136808 0)
(0.986735 -0.00706562 0)
(0.987161 0.00518166 0)
(1.00124 0.00891915 0)
(1.01005 0.000768233 0)
(1.00885 -0.00879705 0)
(1.00608 -0.0168103 0)
(0.997536 -0.0229941 0)
(0.987403 -0.0219254 0)
(0.979143 -0.0206273 0)
(0.9763 -0.0125656 0)
(0.975773 -0.00797096 0)
(0.975952 -0.00206904 0)
(0.97755 0.00185366 0)
(0.980476 0.00291648 0)
(0.981609 0.00526841 0)
(0.983614 0.00719535 0)
(0.985143 0.00834014 0)
(0.998963 -0.000353433 0)
(1.0038 0.00200872 0)
(1.00127 -0.0129954 0)
(0.987319 -0.00696664 0)
(0.98767 0.00494676 0)
(1.00111 0.00813701 0)
(1.00947 0.000547824 0)
(1.00825 -0.00867886 0)
(1.0056 -0.016297 0)
(0.99743 -0.0221568 0)
(0.98766 -0.0212415 0)
(0.979785 -0.0197933 0)
(0.977157 -0.0124788 0)
(0.976588 -0.00774227 0)
(0.976757 -0.0023548 0)
(0.978084 0.00154468 0)
(0.980906 0.00279021 0)
(0.982126 0.00496912 0)
(0.984045 0.00695468 0)
(0.985574 0.00807938 0)
(0.999002 -0.000358642 0)
(1.00353 0.00177463 0)
(1.00113 -0.012311 0)
(0.9879 -0.00686091 0)
(0.988179 0.00470864 0)
(1.00097 0.00738038 0)
(1.0089 0.000308232 0)
(1.00765 -0.00853983 0)
(1.00513 -0.0157972 0)
(0.997326 -0.0213208 0)
(0.987927 -0.0205448 0)
(0.98042 -0.0189747 0)
(0.97802 -0.0123544 0)
(0.977408 -0.00754494 0)
(0.977557 -0.00257645 0)
(0.978639 0.00122362 0)
(0.981346 0.00264249 0)
(0.982644 0.00467722 0)
(0.984488 0.00667685 0)
(0.985984 0.00780702 0)
(0.999052 -0.000356805 0)
(1.00327 0.00153358 0)
(1.00101 -0.0116318 0)
(0.988481 -0.0067512 0)
(0.988685 0.00446699 0)
(1.00084 0.00665655 0)
(1.00834 5.04876e-05 0)
(1.00705 -0.00838107 0)
(1.00466 -0.0153064 0)
(0.997226 -0.0204904 0)
(0.988204 -0.0198337 0)
(0.981048 -0.0181699 0)
(0.978886 -0.0121946 0)
(0.978236 -0.00737887 0)
(0.978353 -0.00274542 0)
(0.979213 0.000908046 0)
(0.981801 0.00246995 0)
(0.983161 0.00439238 0)
(0.984941 0.00637319 0)
(0.986378 0.00752113 0)
(0.999105 -0.000351232 0)
(1.00301 0.00129533 0)
(1.00088 -0.0109631 0)
(0.989062 -0.00663474 0)
(0.989186 0.00421199 0)
(1.00071 0.00596526 0)
(1.00779 -0.000224958 0)
(1.00647 -0.00820746 0)
(1.00419 -0.0148198 0)
(0.997133 -0.0196697 0)
(0.988491 -0.0191081 0)
(0.98167 -0.0173782 0)
(0.979748 -0.011993 0)
(0.979075 -0.00724229 0)
(0.979146 -0.00287309 0)
(0.979804 0.00060803 0)
(0.98227 0.00227035 0)
(0.983683 0.00410018 0)
(0.985405 0.00604924 0)
(0.98676 0.00722425 0)
(0.999159 -0.000342282 0)
(1.00277 0.00105894 0)
(1.00076 -0.0103052 0)
(0.989642 -0.00650895 0)
(0.989679 0.00394145 0)
(1.00057 0.00530304 0)
(1.00726 -0.000513526 0)
(1.0059 -0.00802154 0)
(1.00374 -0.0143314 0)
(0.997048 -0.0188688 0)
(0.988787 -0.0183726 0)
(0.982286 -0.0165969 0)
(0.980602 -0.01175 0)
(0.979923 -0.00712937 0)
(0.979936 -0.00297053 0)
(0.980408 0.0003296 0)
(0.982752 0.00206024 0)
(0.984209 0.00380834 0)
(0.985882 0.00570259 0)
(0.987135 0.00690982 0)
(0.999211 -0.000328666 0)
(1.00255 0.000825532 0)
(1.00065 -0.00966269 0)
(0.99022 -0.00637865 0)
(0.990166 0.00366801 0)
(1.00044 0.00467926 0)
(1.00675 -0.000810449 0)
(1.00534 -0.00782665 0)
(1.00329 -0.0138356 0)
(0.996972 -0.0180924 0)
(0.989093 -0.017637 0)
(0.982896 -0.0158249 0)
(0.981445 -0.0114684 0)
(0.980778 -0.00703542 0)
(0.980727 -0.00304867 0)
(0.981024 8.02406e-05 0)
(0.983247 0.00184033 0)
(0.984737 0.00351888 0)
(0.986371 0.00533302 0)
(0.98751 0.00657216 0)
(0.999262 -0.000312267 0)
(1.00233 0.000600418 0)
(1.00054 -0.00903935 0)
(0.990794 -0.00623803 0)
(0.990647 0.00338108 0)
(1.0003 0.0040934 0)
(1.00626 -0.00111747 0)
(1.00479 -0.00762252 0)
(1.00286 -0.0133301 0)
(0.996904 -0.017335 0)
(0.989411 -0.0169129 0)
(0.9835 -0.0150709 0)
(0.982271 -0.0111498 0)
(0.981639 -0.00694878 0)
(0.98152 -0.00311719 0)
(0.981648 -0.000141914 0)
(0.983753 0.00161307 0)
(0.985266 0.00322803 0)
(0.986869 0.0049505 0)
(0.987891 0.00621102 0)
(0.999311 -0.000291946 0)
(1.00212 0.000380806 0)
(1.00044 -0.00843242 0)
(0.991362 -0.00608626 0)
(0.991122 0.00307738 0)
(1.00015 0.00354956 0)
(1.00578 -0.00143087 0)
(1.00427 -0.007422 0)
(1.00243 -0.0128136 0)
(0.996843 -0.0165886 0)
(0.989741 -0.0161997 0)
(0.9841 -0.0143394 0)
(0.98308 -0.0107941 0)
(0.982501 -0.00685673 0)
(0.982318 -0.00317847 0)
(0.98228 -0.000332179 0)
(0.984267 0.00138575 0)
(0.985795 0.00293631 0)
(0.987374 0.00457333 0)
(0.988282 0.00582633 0)
(0.999357 -0.0002703 0)
(1.00193 0.00017331 0)
(1.00034 -0.0078459 0)
(0.99192 -0.00592934 0)
(0.991592 0.0027667 0)
(1.00001 0.00304412 0)
(1.00531 -0.00174397 0)
(1.00376 -0.0072383 0)
(1.00202 -0.0122864 0)
(0.996789 -0.0158536 0)
(0.990082 -0.0154956 0)
(0.984698 -0.0136247 0)
(0.98387 -0.0104099 0)
(0.983361 -0.00675567 0)
(0.983122 -0.00323292 0)
(0.982919 -0.00050105 0)
(0.984786 0.00117087 0)
(0.986324 0.00263783 0)
(0.987884 0.00420201 0)
(0.988683 0.00542863 0)
(0.999402 -0.000246606 0)
(1.00175 -2.29105e-05 0)
(1.00024 -0.00727865 0)
(0.992468 -0.00577057 0)
(0.992055 0.00244615 0)
(0.999858 0.00257943 0)
(1.00487 -0.00205079 0)
(1.00329 -0.00706692 0)
(1.00163 -0.0117553 0)
(0.996742 -0.0151249 0)
(0.990434 -0.014807 0)
(0.985294 -0.0129366 0)
(0.984638 -0.0100096 0)
(0.984213 -0.00664976 0)
(0.983931 -0.00328734 0)
(0.983566 -0.000653649 0)
(0.985306 0.000974245 0)
(0.986851 0.0023393 0)
(0.988398 0.00383207 0)
(0.989095 0.00502589 0)
(0.999444 -0.000221264 0)
(1.00158 -0.00021122 0)
(1.00016 -0.00672435 0)
(0.993003 -0.00560944 0)
(0.992513 0.00210819 0)
(0.999703 0.00215478 0)
(1.00444 -0.00234215 0)
(1.00284 -0.00691424 0)
(1.00125 -0.0112214 0)
(0.996701 -0.0144002 0)
(0.990794 -0.0141327 0)
(0.985892 -0.0122735 0)
(0.985386 -0.00959605 0)
(0.985054 -0.00654085 0)
(0.984747 -0.00334512 0)
(0.984224 -0.000791392 0)
(0.985826 0.000796724 0)
(0.987373 0.00205075 0)
(0.988915 0.00346653 0)
(0.989515 0.00462653 0)
(0.999484 -0.000195431 0)
(1.00142 -0.000386872 0)
(1.00008 -0.00619637 0)
(0.993522 -0.00543447 0)
(0.992966 0.00175797 0)
(0.999547 0.00176305 0)
(1.00402 -0.00260347 0)
(1.00242 -0.00678628 0)
(1.0009 -0.0106883 0)
(0.996664 -0.0136827 0)
(0.991163 -0.0134647 0)
(0.986492 -0.0116321 0)
(0.986111 -0.00917129 0)
(0.985879 -0.00641859 0)
(0.985568 -0.00340412 0)
(0.984894 -0.000912956 0)
(0.986345 0.000638576 0)
(0.987885 0.00177338 0)
(0.989434 0.0030933 0)
(0.989939 0.00423771 0)
(0.999522 -0.000169918 0)
(1.00128 -0.000546296 0)
(1.00001 -0.00569841 0)
(0.994023 -0.00525046 0)
(0.993415 0.00139885 0)
(0.999392 0.00140449 0)
(1.00362 -0.00282584 0)
(1.00204 -0.00667591 0)
(1.00057 -0.0101731 0)
(0.996634 -0.0129671 0)
(0.991536 -0.0128044 0)
(0.987092 -0.0110152 0)
(0.986817 -0.00873739 0)
(0.986683 -0.00628081 0)
(0.986395 -0.00346791 0)
(0.98558 -0.00103374 0)
(0.98686 0.00049666 0)
(0.988381 0.00151638 0)
(0.989956 0.00270565 0)
(0.990377 0.00384927 0)
(0.999558 -0.000147565 0)
(1.00115 -0.000687821 0)
(0.999949 -0.00523472 0)
(0.994503 -0.00505281 0)
(0.993859 0.001036 0)
(0.999241 0.00106625 0)
(1.00323 -0.00300322 0)
(1.00168 -0.00657531 0)
(1.00027 -0.00968773 0)
(0.996611 -0.0122645 0)
(0.991911 -0.0121459 0)
(0.987695 -0.0104129 0)
(0.987502 -0.00830041 0)
(0.987464 -0.00613009 0)
(0.987222 -0.00353969 0)
(0.986286 -0.00117293 0)
(0.987379 0.000364464 0)
(0.988854 0.0012938 0)
(0.990473 0.00232305 0)
(0.990837 0.00344112 0)
(0.999592 -0.000126874 0)
(1.00103 -0.000804525 0)
(0.999895 -0.00482595 0)
(0.994963 -0.00482429 0)
(0.994296 0.000673452 0)
(0.999097 0.000741056 0)
(1.00285 -0.00313417 0)
(1.00136 -0.00647351 0)
(1 -0.00923255 0)
(0.996602 -0.0115865 0)
(0.99229 -0.0114884 0)
(0.988295 -0.00982801 0)
(0.988165 -0.00786696 0)
(0.988215 -0.0059653 0)
(0.988045 -0.00360908 0)
(0.987015 -0.00132453 0)
(0.987909 0.000222391 0)
(0.989303 0.00110313 0)
(0.99097 0.00197319 0)
(0.991321 0.0030008 0)
(0.999623 -0.000111448 0)
(1.00093 -0.000893644 0)
(0.999853 -0.00446606 0)
(0.995399 -0.00456908 0)
(0.994723 0.000316298 0)
(0.998968 0.000427914 0)
(1.00248 -0.00322339 0)
(1.00107 -0.00635507 0)
(0.999769 -0.0087952 0)
(0.996606 -0.0109321 0)
(0.992671 -0.0108488 0)
(0.988894 -0.0092566 0)
(0.988809 -0.00743427 0)
(0.988939 -0.00578217 0)
(0.988861 -0.00366824 0)
(0.987764 -0.00148878 0)
(0.988462 6.37231e-05 0)
(0.989741 0.000924699 0)
(0.991434 0.00167136 0)
(0.991817 0.00255125 0)
(0.999652 -0.000101746 0)
(1.00083 -0.000955388 0)
(0.99982 -0.00414878 0)
(0.995812 -0.004306 0)
(0.995138 -2.80093e-06 0)
(0.998854 0.000111787 0)
(1.00213 -0.00328096 0)
(1.0008 -0.00620842 0)
(0.999566 -0.00837557 0)
(0.996626 -0.0103113 0)
(0.99306 -0.0102363 0)
(0.989493 -0.00870217 0)
(0.98943 -0.00700554 0)
(0.989625 -0.00557776 0)
(0.989659 -0.00371878 0)
(0.98853 -0.00166158 0)
(0.989037 -9.94955e-05 0)
(0.990176 0.000741129 0)
(0.991865 0.00141512 0)
(0.992308 0.00213827 0)
(0.99968 -9.71268e-05 0)
(1.00074 -0.000986237 0)
(0.999796 -0.00387752 0)
(0.996204 -0.00404235 0)
(0.995535 -0.000276338 0)
(0.998752 -0.000200739 0)
(1.0018 -0.0033215 0)
(1.00056 -0.00603537 0)
(0.999394 -0.00796666 0)
(0.996665 -0.00972105 0)
(0.993458 -0.00964827 0)
(0.990094 -0.00818481 0)
(0.990031 -0.00659016 0)
(0.990272 -0.00535481 0)
(0.990431 -0.00375175 0)
(0.989309 -0.00184219 0)
(0.989635 -0.00027514 0)
(0.990618 0.000552484 0)
(0.992273 0.00117009 0)
(0.992769 0.00178094 0)
(0.999705 -9.86995e-05 0)
(1.00065 -0.000992834 0)
(0.999782 -0.00363584 0)
(0.996577 -0.00379044 0)
(0.99591 -0.000509058 0)
(0.998664 -0.000490933 0)
(1.0015 -0.00335329 0)
(1.00034 -0.00584027 0)
(0.99925 -0.00754899 0)
(0.996718 -0.00914271 0)
(0.993859 -0.00908975 0)
(0.990699 -0.00771666 0)
(0.99062 -0.00620087 0)
(0.99088 -0.00511577 0)
(0.991168 -0.0037509 0)
(0.990093 -0.00202566 0)
(0.990257 -0.000469343 0)
(0.991065 0.000371469 0)
(0.99267 0.00091888 0)
(0.9932 0.0014799 0)
(0.999727 -0.000104411 0)
(1.00057 -0.000982339 0)
(0.999774 -0.0034041 0)
(0.996932 -0.00358494 0)
(0.996265 -0.000687831 0)
(0.998586 -0.000744497 0)
(1.00122 -0.00337614 0)
(1.00016 -0.00564171 0)
(0.999135 -0.00712302 0)
(0.996782 -0.00856695 0)
(0.994258 -0.00856107 0)
(0.991306 -0.00729569 0)
(0.991204 -0.00584347 0)
(0.991457 -0.00486603 0)
(0.991862 -0.0037117 0)
(0.99087 -0.00219689 0)
(0.990907 -0.000686644 0)
(0.991521 0.000191131 0)
(0.993062 0.000676926 0)
(0.993609 0.00119309 0)
(0.999747 -0.000114067 0)
(1.00049 -0.000959236 0)
(0.999768 -0.00318162 0)
(0.997271 -0.00341985 0)
(0.996603 -0.000827095 0)
(0.998514 -0.000952635 0)
(1.00096 -0.00339036 0)
(1.00001 -0.00544883 0)
(0.99905 -0.00668858 0)
(0.996855 -0.00799146 0)
(0.994648 -0.00805092 0)
(0.991911 -0.00692046 0)
(0.991788 -0.00553112 0)
(0.992009 -0.0046202 0)
(0.992511 -0.00363795 0)
(0.991625 -0.00232988 0)
(0.99158 -0.000919466 0)
(0.991995 3.94427e-06 0)
(0.993444 0.000461607 0)
(0.994009 0.000894915 0)
(0.999764 -0.000124338 0)
(1.00042 -0.000931419 0)
(0.99976 -0.00296166 0)
(0.997593 -0.00329149 0)
(0.996925 -0.000950625 0)
(0.998446 -0.00110668 0)
(1.00073 -0.00338051 0)
(0.99989 -0.00526975 0)
(0.998998 -0.00627007 0)
(0.996931 -0.00741345 0)
(0.995019 -0.00753848 0)
(0.992506 -0.00657289 0)
(0.992375 -0.00526508 0)
(0.992548 -0.00439647 0)
(0.993121 -0.00354403 0)
(0.992347 -0.00241987 0)
(0.992265 -0.00114018 0)
(0.992496 -0.000201074 0)
(0.993813 0.000270564 0)
(0.994395 0.000608878 0)
(0.999779 -0.000134135 0)
(1.00035 -0.000907466 0)
(0.999749 -0.00273498 0)
(0.997898 -0.00319455 0)
(0.99724 -0.00107312 0)
(0.998384 -0.00119664 0)
(1.0005 -0.00332475 0)
(0.999802 -0.00510574 0)
(0.998984 -0.00589476 0)
(0.997018 -0.00684498 0)
(0.995366 -0.00702359 0)
(0.99308 -0.00623418 0)
(0.99296 -0.00503525 0)
(0.993077 -0.00419866 0)
(0.993698 -0.00343942 0)
(0.993033 -0.00247263 0)
(0.992945 -0.00132655 0)
(0.993023 -0.000423539 0)
(0.994181 8.67343e-05 0)
(0.994764 0.000358861 0)
(0.999789 -0.000141076 0)
(1.00029 -0.000888315 0)
(0.999731 -0.00251135 0)
(0.998181 -0.00310485 0)
(0.997551 -0.00120094 0)
(0.998334 -0.00124702 0)
(1.00028 -0.00322237 0)
(0.999734 -0.00494544 0)
(0.99901 -0.00556615 0)
(0.997118 -0.00630489 0)
(0.995686 -0.00649843 0)
(0.993624 -0.00589154 0)
(0.993537 -0.0048286 0)
(0.993604 -0.00402841 0)
(0.99425 -0.00333587 0)
(0.993683 -0.00250585 0)
(0.993607 -0.00148454 0)
(0.993568 -0.000641802 0)
(0.994562 -0.00010215 0)
(0.995106 0.000144762 0)
(0.999797 -0.000143586 0)
(1.00024 -0.000875261 0)
(0.999709 -0.00229226 0)
(0.99844 -0.00301051 0)
(0.99786 -0.00134395 0)
(0.998302 -0.00128107 0)
(1.00007 -0.0030618 0)
(0.999675 -0.00476832 0)
(0.999074 -0.00529484 0)
(0.997244 -0.00582515 0)
(0.995982 -0.00596525 0)
(0.994126 -0.00552733 0)
(0.994095 -0.00462564 0)
(0.994122 -0.00388356 0)
(0.994777 -0.00324103 0)
(0.994299 -0.00252318 0)
(0.994247 -0.00162086 0)
(0.994121 -0.000844098 0)
(0.994959 -0.000301296 0)
(0.995429 -4.46368e-05 0)
(0.9998 -0.000139719 0)
(1.00019 -0.000872536 0)
(0.999685 -0.00207483 0)
(0.998671 -0.0029021 0)
(0.998166 -0.00150309 0)
(0.998298 -0.00130716 0)
(0.999862 -0.00285241 0)
(0.99961 -0.00455288 0)
(0.999163 -0.00507282 0)
(0.997404 -0.0054186 0)
(0.996267 -0.00546341 0)
(0.994583 -0.00513812 0)
(0.994623 -0.00441788 0)
(0.994632 -0.00376176 0)
(0.995287 -0.00316004 0)
(0.99488 -0.00252499 0)
(0.99486 -0.00172823 0)
(0.99467 -0.00102212 0)
(0.995373 -0.0004982 0)
(0.995742 -0.000218102 0)
(0.9998 -0.000128149 0)
(1.00016 -0.000878387 0)
(0.999661 -0.00185723 0)
(0.99887 -0.00277726 0)
(0.99847 -0.00165815 0)
(0.998331 -0.0013393 0)
(0.999666 -0.00262544 0)
(0.999529 -0.00429189 0)
(0.999266 -0.00486071 0)
(0.9976 -0.00508908 0)
(0.996554 -0.00501676 0)
(0.994997 -0.00473411 0)
(0.995103 -0.00418024 0)
(0.995121 -0.00364268 0)
(0.995782 -0.00309424 0)
(0.995435 -0.00252833 0)
(0.995445 -0.00181674 0)
(0.995206 -0.00118021 0)
(0.995797 -0.000690992 0)
(0.996055 -0.000391852 0)
(0.999798 -0.000109948 0)
(1.00014 -0.000888913 0)
(0.999641 -0.00164809 0)
(0.999036 -0.00262604 0)
(0.998765 -0.0017978 0)
(0.998403 -0.00139014 0)
(0.999492 -0.00239701 0)
(0.999431 -0.00399265 0)
(0.999362 -0.00463275 0)
(0.997823 -0.0048369 0)
(0.996859 -0.00463979 0)
(0.995383 -0.00435135 0)
(0.995534 -0.00391025 0)
(0.995574 -0.00350659 0)
(0.996253 -0.003033 0)
(0.995964 -0.00253361 0)
(0.996003 -0.00189807 0)
(0.995722 -0.00131452 0)
(0.996223 -0.000869198 0)
(0.996375 -0.000565162 0)
(0.999793 -8.31163e-05 0)
(1.00013 -0.000899998 0)
(0.99963 -0.00146057 0)
(0.999168 -0.00243782 0)
(0.999045 -0.00191994 0)
(0.998516 -0.00147239 0)
(0.99935 -0.00218342 0)
(0.99932 -0.00366693 0)
(0.999436 -0.00437231 0)
(0.99806 -0.0046134 0)
(0.997189 -0.00434419 0)
(0.995758 -0.00401012 0)
(0.99592 -0.00363095 0)
(0.99598 -0.00334579 0)
(0.996693 -0.0029686 0)
(0.996464 -0.00254016 0)
(0.996541 -0.00197689 0)
(0.996221 -0.00143392 0)
(0.99664 -0.00102327 0)
(0.996706 -0.000739052 0)
(0.999788 -5.3033e-05 0)
(1.00012 -0.000897583 0)
(0.999633 -0.00129809 0)
(0.999269 -0.00221232 0)
(0.9993 -0.00200151 0)
(0.99867 -0.0015953 0)
(0.999253 -0.00200617 0)
(0.999204 -0.00333438 0)
(0.999484 -0.00408206 0)
(0.998289 -0.00438393 0)
(0.997538 -0.00412374 0)
(0.996138 -0.00372268 0)
(0.996273 -0.00336034 0)
(0.996336 -0.00315901 0)
(0.997089 -0.00288309 0)
(0.996928 -0.0025351 0)
(0.997053 -0.00204824 0)
(0.996706 -0.00154943 0)
(0.997042 -0.00115782 0)
(0.99704 -0.000903323 0)
(0.999783 -2.2478e-05 0)
(1.00013 -0.000877655 0)
(0.999653 -0.00116082 0)
(0.999345 -0.00196985 0)
(0.999515 -0.00201472 0)
(0.998854 -0.001736 0)
(0.99921 -0.00187662 0)
(0.999093 -0.00301527 0)
(0.999506 -0.00377216 0)
(0.998495 -0.00413574 0)
(0.997892 -0.00393656 0)
(0.996535 -0.00351047 0)
(0.996611 -0.00311573 0)
(0.996648 -0.00296525 0)
(0.997435 -0.00277679 0)
(0.997347 -0.00251421 0)
(0.997532 -0.0021097 0)
(0.997178 -0.00166311 0)
(0.997432 -0.00128501 0)
(0.997365 -0.00104829 0)
(0.999778 7.23312e-06 0)
(1.00014 -0.000840621 0)
(0.999691 -0.00104954 0)
(0.999405 -0.00173652 0)
(0.999687 -0.00195296 0)
(0.999055 -0.00186423 0)
(0.999227 -0.00180484 0)
(0.999002 -0.00271558 0)
(0.999508 -0.00344742 0)
(0.998671 -0.00387269 0)
(0.99823 -0.00374688 0)
(0.996944 -0.0033656 0)
(0.996953 -0.00291905 0)
(0.996927 -0.00277128 0)
(0.997732 -0.00265409 0)
(0.997715 -0.00247306 0)
(0.997969 -0.00215206 0)
(0.997631 -0.00176775 0)
(0.997818 -0.00140857 0)
(0.997679 -0.00117527 0)
(0.999773 3.28869e-05 0)
(1.00015 -0.000783449 0)
(0.999745 -0.000960281 0)
(0.999462 -0.00152832 0)
(0.999816 -0.00182847 0)
(0.999253 -0.00195099 0)
(0.999302 -0.00178916 0)
(0.998946 -0.00245151 0)
(0.999494 -0.0031241 0)
(0.998814 -0.00359442 0)
(0.998537 -0.0035433 0)
(0.997352 -0.00323947 0)