/*--------------------------------*- C++ -*----------------------------------*\
| =========                 |                                                 |
| \\      /  F ield         | OpenFOAM: The Open Source CFD Toolbox           |
|  \\    /   O peration     | Version:  2506                                  |
|   \\  /    A nd           | Website:  www.openfoam.com                      |
|    \\/     M anipulation  |                                                 |
\*---------------------------------------------------------------------------*/
FoamFile
{
    version     2.0;
    format      ascii;
    arch        "LSB;label=32;scalar=64";
    class       volScalarField;
    location    "9.85";
    object      p;
}
// * * * * * * * * * * * * * * * * * * * * * * * * * * * * * * * * * * * * * //

dimensions      [0 2 -2 0 0 0 0];

internalField   nonuniform List<scalar> 
9600
(
3.3428e-12
-0.00211653
-0.00155329
0.000119141
-0.000327543
-2.91431e-05
0.00169139
0.0035122
0.00272483
0.00396065
0.00319546
0.00536692
0.00592158
0.00783192
0.0087531
0.0106081
0.0134362
0.0151607
0.0186869
0.0244715
-7.84199e-06
-0.00210394
-0.00154825
0.000137487
-0.000341754
-3.07734e-05
0.00168762
0.00350915
0.0027361
0.00395944
0.00320582
0.00537553
0.00592713
0.00782243
0.0087472
0.0105892
0.0134437
0.0151256
0.0189729
0.0240323
-1.56164e-05
-0.00209124
-0.00154583
0.00015224
-0.000371861
-1.69913e-05
0.00168266
0.00352574
0.00275867
0.00394559
0.00323661
0.00537899
0.00593384
0.0078033
0.00873637
0.0105712
0.0134413
0.01509
0.0190627
0.0234121
-2.33987e-05
-0.00207764
-0.00154343
0.000158204
-0.000398195
2.07459e-05
0.00167911
0.00355534
0.00279355
0.00392691
0.00329026
0.00537722
0.00594551
0.00777872
0.00872581
0.0105536
0.0134397
0.0150513
0.0190925
0.0228945
-3.26671e-05
-0.00206147
-0.00153869
0.000157629
-0.000410484
7.51311e-05
0.00168178
0.00359698
0.00283821
0.0039055
0.00336132
0.00537486
0.00596204
0.00775089
0.00871631
0.0105329
0.0134475
0.015011
0.0190868
0.0224308
-4.36496e-05
-0.0020411
-0.0015296
0.00015415
-0.000406753
0.000140459
0.00169494
0.00364655
0.00289104
0.00388416
0.00344387
0.00537519
0.0059811
0.00772059
0.00870753
0.0105112
0.013462
0.0149718
0.019044
0.0219965
-5.57374e-05
-0.0020153
-0.00151483
0.000150237
-0.000388976
0.000213796
0.00171935
0.00370116
0.00295003
0.00386247
0.00353257
0.00537853
0.00600038
0.00768795
0.00869988
0.0104893
0.0134803
0.0149336
0.0189594
0.021585
-6.79981e-05
-0.00198326
-0.00149331
0.000147006
-0.000361053
0.000291714
0.0017524
0.00375769
0.00301341
0.00384007
0.00362432
0.00538421
0.00601836
0.00765241
0.00869274
0.0104667
0.0134991
0.0148964
0.0188314
0.0211904
-7.96969e-05
-0.00194459
-0.00146423
0.000145091
-0.000327883
0.000369988
0.00178983
0.0038135
0.00307904
0.00381674
0.00371754
0.00539178
0.00603453
0.00761355
0.0086848
0.0104428
0.0135134
0.0148594
0.0186605
0.0208071
-9.05808e-05
-0.00189924
-0.00142767
0.000145381
-0.000292616
0.000445119
0.00182672
0.00386606
0.00314503
0.00379282
0.00381165
0.00540156
0.00604997
0.0075724
0.00867491
0.0104178
0.0135183
0.0148203
0.0184497
0.0204293
-0.000100759
-0.0018465
-0.00138479
0.000149393
-0.000255329
0.00051501
0.00185857
0.00391325
0.00320979
0.00376873
0.00390645
0.00541454
0.00606693
0.00753148
0.00866262
0.010392
0.0135094
0.014776
0.0182038
0.0200536
-0.000110439
-0.00178819
-0.00133739
0.000158781
-0.000214427
0.000578864
0.00188243
0.00395356
0.00327225
0.00374484
0.00400172
0.00543201
0.00608771
0.00749234
0.00864859
0.010366
0.0134837
0.0147242
0.0179287
0.0196726
-0.00011975
-0.00172604
-0.00128716
0.000174511
-0.000168619
0.000636879
0.00189738
0.00398645
0.00333196
0.00372147
0.0040969
0.0054546
0.00611362
0.00746176
0.00863385
0.0103412
0.0134411
0.0146636
0.0176299
0.0192852
-0.000128728
-0.00166032
-0.00123515
0.000196461
-0.000117776
0.000689909
0.0019048
0.00401211
0.00338911
0.00369891
0.00419129
0.00548233
0.00614447
0.00743955
0.00861905
0.0103189
0.0133833
0.0145922
0.0173134
0.0188908
-0.000137294
-0.00159175
-0.00118181
0.000223619
-6.26178e-05
0.000738857
0.00190735
0.0040312
0.00344425
0.00367755
0.00428422
0.0055151
0.00617878
0.00742525
0.00860443
0.0102995
0.0133128
0.0145089
0.0169846
0.0184903
-0.000145309
-0.00152093
-0.00112717
0.000254734
-4.13934e-06
0.000784245
0.00190782
0.00404455
0.00349786
0.00365798
0.00437514
0.00555279
0.0062145
0.0074174
0.00858994
0.0102819
0.0132318
0.0144129
0.0166465
0.0180845
-0.000152644
-0.00144827
-0.00107106
0.000288831
5.68639e-05
0.000826335
0.00190837
0.00405301
0.00355022
0.00364088
0.00446352
0.0055953
0.00624984
0.00741422
0.00857503
0.0102639
0.0131422
0.0143034
0.016301
0.0176737
-0.000159149
-0.00137407
-0.00101329
0.000325296
0.000119918
0.000865219
0.0019105
0.00405739
0.00360143
0.00362678
0.00454893
0.00564256
0.00628362
0.00741385
0.00855884
0.0102431
0.0130449
0.0141808
0.0159488
0.0172578
-0.000164637
-0.00129863
-0.000953644
0.000363779
0.000184783
0.000901048
0.00191516
0.00405844
0.00365148
0.00361615
0.00463085
0.00569452
0.00631523
0.00741445
0.00853946
0.0102172
0.0129403
0.0140464
0.0155903
0.0168355
-0.000168899
-0.00122224
-0.00089197
0.000404036
0.000251463
0.000934135
0.00192279
0.00405684
0.00370018
0.00360955
0.00470879
0.00575095
0.00634455
0.00741435
0.00852098
0.0101844
0.0128277
0.0139016
0.0152262
0.0164056
-0.000171709
-0.00114517
-0.000828115
0.000445916
0.000319984
0.000964649
0.00193356
0.00405337
0.0037472
0.00360739
0.00478256
0.00581141
0.00637163
0.00741208
0.00850122
0.0101435
0.0127061
0.0137476
0.0148587
0.0159676
-0.000172829
-0.00106766
-0.000761938
0.000489358
0.000390279
0.000992783
0.00194746
0.0040488
0.00379227
0.00360974
0.00485208
0.00587541
0.00639674
0.00740619
0.00847973
0.0100941
0.0125741
0.0135849
0.0144906
0.015522
-0.000172002
-0.000990005
-0.000693387
0.000534295
0.0004623
0.00101891
0.00196422
0.00404377
0.00383525
0.00361651
0.00491725
0.00594242
0.00642028
0.00739537
0.00845585
0.0100366
0.0124311
0.013413
0.0141233
0.0150704
-0.000168966
-0.000912711
-0.000622416
0.000580653
0.000535992
0.0010434
0.00198344
0.00403883
0.00387609
0.00362755
0.00497807
0.00601172
0.00644277
0.00737857
0.00842876
0.00997133
0.0122768
0.0132315
0.0137577
0.0146128
-0.000163453
-0.000835427
-0.000548977
0.000628488
0.00061121
0.00106668
0.00200461
0.00403434
0.00391477
0.00364267
0.00503462
0.00608237
0.00646475
0.00735531
0.00839729
0.00989865
0.012111
0.0130409
0.0133961
0.0141482
-0.000155176
-0.000758636
-0.000473186
0.000677903
0.000687787
0.0010893
0.00202726
0.00403052
0.00395137
0.0036616
0.00508706
0.00615344
0.00648634
0.00732545
0.00836044
0.00981872
0.0119335
0.0128411
0.0130425
0.0136759
-0.00014385
-0.000682506
-0.000395203
0.000728928
0.000765541
0.00111189
0.00205093
0.00402755
0.00398602
0.00368387
0.00513559
0.00622411
0.00650759
0.00728888
0.00831744
0.00973208
0.0117442
0.0126306
0.0127008
0.0131999
-0.000129169
-0.00060712
-0.000315184
0.000781603
0.00084426
0.00113509
0.00207525
0.0040255
0.00401891
0.0037089
0.00518045
0.00629358
0.00652843
0.00724579
0.00826716
0.00963923
0.0115441
0.0124063
0.0123715
0.0127283
-0.000110861
-0.000532486
-0.000233319
0.000836012
0.000923749
0.00115952
0.00209993
0.00402431
0.00405037
0.00373614
0.00522167
0.00636119
0.0065485
0.00719645
0.00820876
0.0095398
0.0113357
0.0121677
0.0120511
0.0122679
-8.87162e-05
-0.000458565
-0.000149832
0.000892277
0.00100384
0.00118572
0.00212476
0.00402394
0.00408079
0.00376513
0.0052591
0.00642645
0.00656724
0.00714077
0.0081423
0.00943404
0.0111209
0.0119171
0.011736
0.0118214
-6.25021e-05
-0.000385281
-6.50077e-05
0.000950449
0.00108436
0.00121415
0.00214959
0.00402427
0.0041104
0.00379526
0.00529254
0.00648902
0.00658423
0.00707827
0.00806785
0.00932271
0.0108997
0.0116564
0.0114256
0.0113897
-3.20002e-05
-0.000312445
2.08956e-05
0.00101047
0.00116518
0.00124536
0.00217429
0.00402522
0.00413951
0.00382585
0.00532143
0.00654846
0.00659933
0.00700825
0.00798476
0.00920701
0.0106728
0.0113852
0.0111209
0.0109753
2.91419e-06
-0.00023984
0.00010765
0.00107232
0.00124609
0.00127979
0.00219856
0.00402661
0.00416895
0.00385643
0.00534488
0.00660415
0.00661258
0.00693037
0.00789216
0.00908846
0.0104427
0.0111022
0.0108201
0.0105827
4.22783e-05
-0.000167228
0.000195114
0.00113592
0.00132723
0.00131786
0.00222213
0.0040281
0.00419933
0.00388668
0.00536195
0.00665543
0.00662425
0.00684448
0.00778889
0.00896747
0.0102129
0.0108081
0.0105189
0.0102154
8.62059e-05
-9.43833e-05
0.000283233
0.00120108
0.00140896
0.00136006
0.00224485
0.00402914
0.00423105
0.00391673
0.00537161
0.0067012
0.0066349
0.00675072
0.00767378
0.00884363
0.00998625
0.0105058
0.0102126
0.00987281
0.000134838
-2.11498e-05
0.000372028
0.00126774
0.00149059
0.00140695
0.00226669
0.00402893
0.00426467
0.00394732
0.00537265
0.00673947
0.00664523
0.00665004
0.00754576
0.00871601
0.00976449
0.0101996
0.00989803
0.0095488
0.000188217
5.25834e-05
0.000461656
0.00133591
0.00157172
0.00145927
0.00228791
0.00402618
0.00430034
0.00397964
0.00536431
0.00676769
0.00665568
0.00654407
0.00740335
0.00858324
0.00954935
0.00989368
0.00957492
0.00923397
0.000246445
0.000126736
0.000552346
0.00140597
0.00165169
0.00151751
0.00230915
0.00401938
0.00433735
0.00401508
0.00534682
0.00678304
0.00666602
0.00643538
0.00724529
0.00844298
0.00934241
0.0095922
0.00924543
0.0089199
0.000309772
0.000201031
0.000644153
0.00147867
0.00172953
0.00158182
0.00233169
0.00400753
0.00437456
0.00405473
0.00532117
0.00678285
0.0066749
0.00632728
0.00707147
0.00829153
0.00914436
0.0092993
0.00891327
0.00860223
0.000378525
0.000275302
0.000736682
0.0015548
0.00180448
0.00165254
0.0023574
0.00399005
0.00441018
0.00409936
0.00528908
0.00676503
0.00667992
0.00622267
0.00688323
0.00812439
0.00895431
0.00902001
0.00858267
0.00828019
0.000452938
0.000349576
0.000829381
0.00163524
0.00187619
0.00172839
0.00238848
0.00396734
0.00444158
0.00414912
0.00525296
0.00672822
0.00667836
0.00612429
0.00668327
0.00793677
0.00876907
0.00875936
0.00825866
0.00795369
0.000533203
0.00042411
0.000921382
0.00172111
0.00194497
0.00180667
0.00242672
0.00394097
0.00446561
0.00420274
0.00521556
0.00667194
0.00666723
0.00603467
0.00647571
0.00772502
0.00858294
0.00852176
0.00794911
0.00762234
0.000619436
0.000499389
0.0010114
0.00181352
0.0020121
0.00188355
0.00247236
0.00391368
0.00448016
0.00425771
0.00517917
0.00659709
0.00664332
0.00595495
0.00626612
0.00748806
0.00838696
0.00830887
0.0076653
0.00728898
0.000711401
0.000576335
0.00109788
0.00191253
0.00208059
0.00195567
0.00252409
0.00388872
0.00448504
0.00431064
0.00514453
0.00650582
0.00660429
0.00588499
0.00606077
0.00722766
0.00817219
0.00811548
0.00741815
0.00696613
0.000808696
0.000656285
0.00117921
0.00201695
0.00215498
0.0020219
0.00257903
0.00386868
0.00448112
0.0043579
0.00511076
0.00640074
0.00654922
0.00582398
0.00586542
0.00694858
0.00793404
0.00793357
0.00721094
0.00667148
0.000910815
0.000740568
0.00125465
0.00212483
0.00223919
0.0020826
0.00263268
0.00385482
0.00447056
0.0043967
0.00507609
0.00628481
0.00647834
0.00576994
0.00568518
0.00665781
0.00767112
0.00774836
0.00703509
0.00641933
0.00101708
0.000830519
0.00132432
0.00223276
0.00233591
0.00213973
0.00267962
0.003846
0.0044572
0.00442578
0.00503802
0.00616078
0.00639304
0.00572019
0.00552431
0.006364
0.00738352
0.00756556
0.00688035
0.00621117
0.00112661
0.000927588
0.00138938
0.00233548
0.00244599
0.00219883
0.00271557
0.00383934
0.00444562
0.00444595
0.00499422
0.00603028
0.00629478
0.00567131
0.00538496
0.00607712
0.00707116
0.00734689
0.0067333
0.00603671
0.00123841
0.00103301
0.00145186
0.00242765
0.00256785
0.00226656
0.0027395
0.00382954
0.00443818
0.00446132
0.00494503
0.00589392
0.006184
0.00561907
0.00526544
0.00580739
0.0067414
0.00710512
0.00658894
0.00588712
0.0013517
0.00114746
0.00151422
0.00250545
0.00269843
0.0023494
0.00275339
0.00380943
0.00443324
0.00447764
0.00489364
0.00575228
0.00606005
0.00555971
0.00516161
0.00556188
0.00640663
0.00683675
0.00644109
0.0057561
0.00146558
0.00127084
0.0015798
0.00256693
0.0028318
0.00245174
0.00276085
0.00377288
0.00442675
0.00449861
0.00484579
0.00560793
0.00592204
0.00549001
0.00506911
0.00534195
0.00608033
0.00654515
0.006277
0.00564076
0.00157938
0.00140239
0.00165235
0.00261156
0.0029599
0.00257502
0.00277093
0.00371855
0.00440998
0.00452322
0.00480767
0.00546591
0.00577102
0.00540634
0.00498281
0.00514519
0.00577224
0.00624072
0.00609044
0.00553636
0.00169278
0.00154135
0.00173597
0.00264041
0.00307231
0.00271489
0.00279581
0.00365087
0.00437423
0.00454821
0.0047838
0.00533331
0.00561091
0.00530524
0.00489674
0.00496943
0.00548708
0.00593526
0.00588185
0.00542709
0.00180561
0.00168549
0.00183381
0.00265785
0.00316218
0.0028652
0.00284129
0.00357528
0.00431293
0.00456512
0.0047751
0.00522005
0.00545005
0.00518666
0.00480413
0.00481108
0.00522688
0.00563772
0.00565624
0.00530718
0.00191891
0.00183192
0.00194476
0.00266987
0.00322716
0.00301787
0.00291221
0.00350303
0.00422515
0.0045591
0.0047761
0.0051328
0.0052994
0.00505471
0.00469903
0.00466371
0.00499149
0.00535501
0.00542158
0.00517239
0.00203294
0.00197861
0.00206835
0.0026836
0.0032647
0.00315981
0.00300837
0.0034513
0.00411814
0.0045202
0.00477551
0.00507076
0.00516964
0.00491824
0.00457992
0.00451833
0.00477668
0.00509221
0.0051864
0.00502412
0.0021493
0.00211733
0.00220232
0.00270326
0.00327383
0.00327732
0.00312383
0.00343302
0.00400854
0.00444823
0.00475785
0.00502826
0.00506839
0.00479006
0.00445218
0.00436853
0.00457495
0.00484972
0.00495812
0.00486611
0.00227244
0.00226958
0.0023418
0.00272653
0.00324932
0.0033626
0.00325175
0.00344933
0.00391468
0.00434973
0.00470812
0.00499097
0.00499534
0.00468253
0.00432507
0.00421505
0.0043809
0.00462397
0.00474142
0.0047045
0.00239669
0.00240153
0.00248314
0.00277063
0.00322012
0.00341469
0.00337672
0.0034969
0.00384859
0.00423999
0.00462374
0.00493865
0.00494369
0.0046028
0.00420867
0.00406168
0.00419066
0.0044092
0.00453537
0.00454476
0.00252248
0.00253382
0.00261797
0.00283368
0.0031964
0.00343775
0.00348337
0.00356534
0.00381163
0.00413481
0.00451115
0.0048568
0.00489809
0.00455198
0.00411463
0.00391576
0.004004
0.00420269
0.004338
0.00438901
0.00264863
0.00265687
0.00274651
0.00291363
0.00318915
0.00343741
0.00356072
0.00363851
0.00379901
0.00404725
0.00438833
0.00474727
0.00484048
0.00452364
0.00405271
0.00378803
0.00382397
0.00400341
0.00414821
0.00423575
0.00277181
0.00277528
0.00286802
0.00300401
0.00319908
0.00342423
0.00360928
0.00371027
0.00381215
0.00398499
0.00427092
0.00461836
0.00475781
0.00449931
0.0040215
0.00368968
0.00365698
0.00380915
0.00396458
0.00408455
0.00289241
0.00288336
0.00298215
0.00310004
0.00322627
0.00341046
0.00363273
0.00377067
0.00384148
0.0039457
0.00416738
0.00448179
0.00465375
0.00446348
0.00401041
0.00362811
0.00351558
0.00362396
0.00378617
0.00393703
0.00301453
0.00300078
0.00308112
0.00318546
0.00326759
0.00340402
0.00363665
0.00381419
0.0038786
0.00392844
0.00408574
0.00435134
0.00453541
0.00441064
0.00400377
0.00359828
0.00341113
0.00345735
0.00361271
0.0037919
0.0031315
0.00310717
0.00317409
0.00326526
0.00331838
0.00340826
0.00362882
0.00383944
0.00391768
0.00393095
0.00402892
0.00423831
0.0044122
0.00434341
0.00399306
0.00358894
0.00334583
0.00332107
0.00344996
0.00364902
0.00324233
0.0032122
0.00325936
0.0033369
0.00337695
0.00342827
0.00361994
0.00384907
0.00394977
0.00394464
0.00399365
0.00414786
0.00429408
0.00426382
0.00397593
0.00359016
0.00331327
0.00322379
0.00330871
0.0035131
0.00334562
0.0033072
0.00334169
0.00340462
0.0034349
0.00345619
0.00361215
0.00384484
0.00397252
0.0039683
0.00398109
0.00408602
0.00419665
0.00418214
0.00395318
0.00359738
0.00330272
0.0031643
0.00319787
0.00339118
0.00344224
0.00340266
0.00341894
0.00346271
0.00348681
0.00348905
0.00361035
0.00383481
0.00398552
0.00399444
0.00398573
0.00404936
0.00412757
0.0041146
0.00393137
0.00361423
0.00331169
0.0031381
0.00312257
0.00328983
0.00352928
0.00348824
0.00349119
0.00351569
0.00353392
0.00352716
0.00361699
0.0038243
0.00399221
0.0040216
0.00400494
0.00403466
0.00408198
0.00406671
0.00391721
0.00364289
0.0033461
0.00314789
0.00309138
0.00322112
0.00360442
0.00355844
0.00355871
0.00356553
0.00357567
0.00356646
0.00363167
0.00381309
0.00398789
0.00404859
0.00404411
0.00405381
0.00407097
0.00404529
0.00391722
0.00368091
0.00340047
0.00318763
0.00310065
0.00319198
0.00367241
0.00362965
0.0036151
0.00360281
0.0036059
0.00360112
0.00365652
0.00381313
0.00397721
0.00405967
0.0040843
0.0040997
0.00410604
0.0040752
0.00396296
0.00375619
0.00349378
0.00327162
0.00315938
0.00321439
0.00372629
0.00368523
0.00366653
0.00363707
0.00362682
0.00362094
0.00367558
0.00382733
0.00398628
0.00407425
0.00411576
0.00414617
0.00416415
0.00414601
0.00405996
0.00388906
0.00364916
0.00342612
0.00329645
0.00332355
0.00376434
0.00372372
0.00370852
0.00366892
0.00364847
0.00363836
0.00368143
0.0038225
0.00399314
0.00410481
0.00416581
0.00420603
0.00423632
0.00424134
0.00418793
0.00405947
0.00384784
0.00362785
0.00348051
0.00346941
0.0037892
0.00375334
0.00374377
0.00369622
0.00367103
0.00366397
0.00370097
0.00380825
0.00396872
0.00413435
0.00427576
0.0043822
0.00445182
0.00449453
0.00448082
0.00441179
0.00427575
0.00408553
0.00389263
0.00376193
0.00380274
0.0037337
0.00370663
0.00368178
0.00367272
0.00368313
0.00373081
0.00378625
0.00382775
0.00391662
0.00410448
0.00434421
0.00454665
0.00467463
0.00474367
0.00481028
0.00489905
0.0050289
0.00521262
0.00540112
0.00380377
0.00380165
0.00376725
0.00369366
0.0036405
0.00366323
0.00377828
0.00393352
0.00409102
0.00424785
0.00439444
0.00452123
0.00464031
0.00477564
0.00490831
0.00505552
0.00522423
0.00535946
0.00543894
0.00543215
0.00368378
0.00358323
0.00370691
0.00380251
0.00385662
0.00388881
0.00394224
0.00403503
0.00414686
0.00423058
0.00431374
0.00442256
0.00454411
0.00471654
0.00489261
0.00505939
0.00527304
0.00555479
0.00583651
0.00599999
0.00377075
0.00382152
0.00386042
0.00389637
0.00391514
0.0039288
0.00399133
0.00407767
0.00418113
0.00431076
0.00447257
0.00467223
0.00483185
0.00495769
0.00505338
0.00505782
0.00492473
0.00465702
0.00431943
0.00401071
0.00363236
0.00357313
0.00375363
0.00392822
0.00403124
0.00405498
0.00408693
0.00413738
0.00422706
0.00434196
0.00443577
0.00456788
0.0047347
0.00490989
0.00510404
0.00529368
0.00549881
0.00574092
0.00596281
0.00606974
0.00363822
0.003686
0.00386158
0.00406752
0.00416303
0.00416256
0.0041758
0.00421091
0.00427311
0.00437809
0.00449138
0.00466441
0.00490085
0.00512928
0.00534197
0.00555536
0.00575303
0.00588759
0.00591536
0.00578358
0.0355039
0.0265424
0.01496
0.00671737
0.00391728
0.00434645
0.00516871
0.00553438
0.00556045
0.00545317
0.00529938
0.00516558
0.0050884
0.00499163
0.00484006
0.00473322
0.004686
0.0046083
0.00451614
0.0044846
0.00448484
0.00443651
0.0043122
0.00414838
0.00405339
0.00406358
0.00406569
0.0039894
0.00390127
0.00387205
0.00387892
0.00384295
0.00376875
0.00374419
0.0037787
0.00380525
0.00382432
0.00387415
0.00393174
0.00397652
0.00399927
0.00398732
0.00393323
0.00387979
0.00386865
0.0038963
0.00392205
0.00393563
0.00396533
0.00402147
0.00406334
0.00405542
0.00404248
0.00406324
0.00406805
0.00402732
0.0040198
0.00403969
0.00404037
0.00402938
0.00405153
0.00409126
0.00415301
0.00421877
0.00426389
0.00420242
0.00410832
0.00411076
0.00416943
0.00421777
0.00426299
0.00429648
0.00430068
0.00431474
0.00430659
0.00431647
0.00432503
0.00435312
0.00435315
0.00436137
0.00440177
0.00443191
0.00446241
0.00449633
0.00454436
0.00460464
0.00466053
0.0047304
0.0047574
0.00482772
0.0048995
0.00496752
0.00501911
0.00505044
0.00506099
0.00505404
0.00504819
0.00493253
0.0048295
0.00464984
0.0338408
0.026306
0.0150314
0.00686114
0.00401325
0.00439337
0.0051973
0.00555392
0.00557443
0.00546388
0.00530807
0.00517294
0.00509498
0.00499757
0.00484521
0.00473774
0.00469022
0.00461216
0.00451948
0.00448758
0.00448764
0.00443913
0.0043146
0.00415044
0.0040551
0.00406517
0.00406726
0.00399083
0.00390249
0.00387313
0.00387997
0.00384398
0.00376963
0.00374495
0.00377944
0.00380598
0.00382498
0.00387477
0.00393236
0.00397714
0.0039999
0.00398796
0.00393385
0.00388036
0.00386918
0.00389683
0.00392259
0.00393614
0.0039658
0.00402193
0.00406381
0.00405588
0.0040429
0.00406364
0.00406847
0.00402771
0.00402015
0.00404004
0.00404072
0.00402971
0.00405183
0.00409154
0.00415328
0.00421903
0.00426418
0.00420271
0.00410855
0.00411096
0.00416964
0.00421797
0.00426318
0.00429667
0.00430086
0.00431491
0.00430676
0.00431663
0.00432518
0.00435327
0.0043533
0.00436151
0.0044019
0.00443205
0.00446254
0.00449645
0.00454448
0.00460476
0.00466064
0.00473051
0.00475752
0.00482782
0.0048996
0.00496761
0.0050192
0.00505053
0.00506108
0.00505411
0.00504826
0.00493257
0.00482946
0.00464978
0.032531
0.0261378
0.0152153
0.00713814
0.00418012
0.00445513
0.00522532
0.00557522
0.00559205
0.00547779
0.00531877
0.00518128
0.0051019
0.00500355
0.00485025
0.00474206
0.00469417
0.00461578
0.00452272
0.00449053
0.00449037
0.00444161
0.00431684
0.00415235
0.00405672
0.00406672
0.00406877
0.00399214
0.00390361
0.00387414
0.00388097
0.00384491
0.0037704
0.0037456
0.00378011
0.00380663
0.00382555
0.00387531
0.00393292
0.0039777
0.00400046
0.00398852
0.00393437
0.00388082
0.00386962
0.00389728
0.00392305
0.00393658
0.00396621
0.00402233
0.00406423
0.00405628
0.00404325
0.00406399
0.00406883
0.00402803
0.00402045
0.00404036
0.00404102
0.00402998
0.00405209
0.00409179
0.00415351
0.00421928
0.00426447
0.00420298
0.00410872
0.00411112
0.00416983
0.00421816
0.00426335
0.00429684
0.00430102
0.00431506
0.0043069
0.00431676
0.00432531
0.0043534
0.00435343
0.00436162
0.00440202
0.00443216
0.00446265
0.00449656
0.00454458
0.00460486
0.00466074
0.00473061
0.00475761
0.0048279
0.00489969
0.0049677
0.00501929
0.00505061
0.00506115
0.00505418
0.00504833
0.00493261
0.00482944
0.0046497
0.0313139
0.0259214
0.0154279
0.00747708
0.00440345
0.00454033
0.00526474
0.0056071
0.00561913
0.00549865
0.00533423
0.00519286
0.00511099
0.00501121
0.00485677
0.00474739
0.00469865
0.00461998
0.0045269
0.00449447
0.00449375
0.00444449
0.00431954
0.0041549
0.00405899
0.00406873
0.00407058
0.00399378
0.00390508
0.00387545
0.00388216
0.00384599
0.00377129
0.00374638
0.00378088
0.00380734
0.00382616
0.00387591
0.00393351
0.00397827
0.00400103
0.00398908
0.00393488
0.00388125
0.00387003
0.00389772
0.00392351
0.00393702
0.00396663
0.00402276
0.00406468
0.00405669
0.00404361
0.00406436
0.00406921
0.00402835
0.00402074
0.00404068
0.00404133
0.00403024
0.00405234
0.00409203
0.00415374
0.00421954
0.0042648
0.00420327
0.00410887
0.00411126
0.00417002
0.00421835
0.00426353
0.00429702
0.00430118
0.00431522
0.00430704
0.00431689
0.00432544
0.00435353
0.00435355
0.00436172
0.00440214
0.00443228
0.00446276
0.00449666
0.00454468
0.00460496
0.00466084
0.00473072
0.0047577
0.00482798
0.00489978
0.00496779
0.00501938
0.00505069
0.00506124
0.00505425
0.00504843
0.00493267
0.00482946
0.00464957
0.030088
0.025622
0.0156336
0.00783315
0.00464894
0.00463701
0.00531011
0.00564697
0.00565526
0.00552718
0.00535572
0.00520909
0.00512346
0.0050216
0.00486588
0.00475466
0.00470413
0.0046251
0.00453258
0.00450003
0.00449821
0.00444801
0.00432308
0.00415876
0.00406256
0.00407157
0.00407296
0.00399615
0.00390744
0.00387749
0.00388379
0.0038474
0.00377255
0.00374749
0.00378186
0.00380821
0.00382694
0.00387665
0.00393423
0.00397894
0.00400163
0.00398964
0.0039354
0.00388171
0.00387044
0.00389813
0.00392398
0.00393752
0.00396712
0.00402323
0.00406516
0.00405714
0.00404403
0.00406477
0.00406962
0.00402869
0.00402106
0.00404102
0.00404165
0.00403053
0.00405263
0.0040923
0.00415399
0.00421983
0.00426518
0.0042036
0.00410902
0.0041114
0.00417024
0.00421857
0.00426374
0.00429723
0.00430137
0.0043154
0.0043072
0.00431703
0.00432559
0.00435368
0.00435369
0.00436183
0.00440227
0.0044324
0.00446288
0.00449677
0.00454478
0.00460507
0.00466095
0.00473083
0.0047578
0.00482807
0.00489988
0.00496789
0.00501949
0.00505079
0.00506134
0.00505435
0.00504855
0.00493278
0.00482954
0.0046494
0.0288637
0.0252524
0.0158313
0.00819641
0.00490603
0.00473916
0.00535596
0.00568952
0.00569648
0.00556075
0.00538147
0.00522892
0.00513886
0.00503469
0.00487776
0.00476412
0.00471082
0.00463127
0.00453989
0.00450738
0.00450385
0.00445217
0.00432758
0.00416432
0.00406789
0.00407544
0.00407593
0.00399946
0.00391114
0.00388069
0.00388617
0.0038494
0.00377444
0.00374912
0.00378317
0.0038093
0.00382795
0.00387763
0.00393515
0.00397977
0.00400232
0.00399023
0.00393597
0.00388223
0.00387084
0.00389848
0.00392442
0.00393807
0.00396769
0.00402375
0.00406567
0.00405767
0.00404454
0.00406524
0.00407006
0.00402906
0.00402142
0.00404139
0.00404199
0.00403084
0.00405295
0.0040926
0.00415427
0.00422016
0.00426562
0.00420397
0.00410918
0.00411156
0.00417049
0.00421883
0.00426398
0.00429747
0.00430158
0.00431561
0.00430738
0.00431719
0.00432575
0.00435384
0.00435384
0.00436194
0.0044024
0.00443254
0.004463
0.00449689
0.00454489
0.00460519
0.00466106
0.00473096
0.00475791
0.00482816
0.00489999
0.004968
0.00501961
0.0050509
0.00506147
0.00505446
0.0050487
0.00493297
0.00482971
0.00464918
0.0276609
0.0248267
0.0160185
0.00856242
0.00517223
0.00484632
0.00540107
0.00573248
0.0057407
0.00559767
0.00540988
0.00525093
0.00515622
0.00504978
0.00489176
0.0047753
0.00471855
0.00463841
0.00454862
0.00451627
0.00451048
0.00445684
0.00433294
0.00417162
0.00407511
0.00408038
0.00407943
0.00400366
0.00391626
0.00388524
0.00388952
0.00385227
0.00377728
0.00375153
0.00378493
0.00381068
0.00382922
0.00387885
0.00393632
0.00398085
0.00400318
0.00399094
0.00393669
0.00388289
0.00387127
0.00389874
0.00392479
0.00393867
0.00396834
0.00402429
0.0040662
0.00405831
0.00404519
0.0040658
0.00407055
0.00402951
0.00402185
0.00404177
0.00404232
0.00403117
0.0040533
0.00409292
0.00415457
0.00422053
0.00426613
0.00420439
0.00410937
0.00411175
0.00417079
0.00421914
0.00426426
0.00429775
0.00430184
0.00431586
0.00430759
0.00431738
0.00432594
0.00435404
0.00435401
0.00436206
0.00440255
0.00443268
0.00446313
0.00449701
0.004545
0.0046053
0.00466119
0.00473109
0.00475802
0.00482825
0.00490011
0.00496813
0.00501975
0.00505102
0.00506162
0.00505462
0.0050489
0.00493329
0.00483001
0.00464892
0.0264954
0.0243505
0.016187
0.00892622
0.00544643
0.00495973
0.00544585
0.00577508
0.00578713
0.00563745
0.00544046
0.00527459
0.00517509
0.00506636
0.0049072
0.00478763
0.00472703
0.00464629
0.00455841
0.00452628
0.00451786
0.00446189
0.00433893
0.00418029
0.00408394
0.00408631
0.00408338
0.00400856
0.0039225
0.00389092
0.0038938
0.00385615
0.00378129
0.00375493
0.00378729
0.00381245
0.0038308
0.00388027
0.00393767
0.00398215
0.00400425
0.00399187
0.0039377
0.00388388
0.00387186
0.00389895
0.00392509
0.0039393
0.00396904
0.0040248
0.0040667
0.00405904
0.00404602
0.00406648
0.00407112
0.00403009
0.00402239
0.0040422
0.00404266
0.00403151
0.00405366
0.00409325
0.00415489
0.00422094
0.00426671
0.00420488
0.0041096
0.00411197
0.00417112
0.0042195
0.0042646
0.00429808
0.00430216
0.00431616
0.00430784
0.00431761
0.00432618
0.00435427
0.00435421
0.00436221
0.00440273
0.00443284
0.00446327
0.00449715
0.00454512
0.00460543
0.00466132
0.00473123
0.00475814
0.00482836
0.00490024
0.00496826
0.00501991
0.00505115
0.0050618
0.00505481
0.00504914
0.00493377
0.0048305
0.00464862
0.025379
0.0238268
0.0163286
0.0092842
0.00572835
0.00508101
0.00549124
0.00581681
0.00583519
0.00567989
0.00547316
0.00529981
0.00519528
0.00508413
0.00492373
0.00480082
0.00473607
0.00465467
0.00456892
0.00453712
0.00452588
0.0044673
0.00434536
0.00418984
0.00409389
0.00409303
0.00408777
0.00401395
0.00392944
0.00389726
0.00389867
0.00386089
0.00378649
0.00375941
0.00379038
0.00381472
0.00383276
0.00388188
0.00393908
0.00398351
0.00400545
0.00399303
0.00393911
0.00388534
0.00387278
0.00389925
0.00392538
0.00393998
0.00396978
0.00402519
0.00406708
0.00405983
0.00404702
0.00406727
0.00407178
0.00403085
0.00402312
0.00404272
0.00404305
0.0040319
0.00405402
0.00409354
0.00415518
0.00422138
0.00426736
0.00420545
0.00410989
0.00411224
0.0041715
0.0042199
0.00426497
0.00429847
0.00430255
0.00431653
0.00430816
0.00431791
0.00432648
0.00435457
0.00435445
0.00436241
0.00440294
0.00443303
0.00446344
0.0044973
0.00454525
0.00460556
0.00466146
0.00473139
0.00475827
0.00482847
0.00490037
0.00496841
0.00502009
0.0050513
0.00506203
0.00505507
0.00504945
0.00493447
0.00483124
0.0046483
0.0243193
0.0232609
0.0164377
0.00963408
0.00601779
0.00521145
0.00553801
0.00585695
0.00588385
0.00572457
0.00550791
0.00532653
0.00521666
0.00510296
0.00494122
0.00481474
0.00474551
0.00466336
0.00457991
0.00454862
0.00453451
0.00447313
0.00435212
0.00419991
0.00410452
0.00410033
0.00409257
0.00401974
0.00393679
0.00390388
0.00390374
0.00386613
0.00379259
0.00376486
0.00379418
0.00381753
0.00383515
0.00388373
0.0039405
0.00398477
0.00400657
0.00399431
0.00394092
0.00388734
0.00387416
0.0038998
0.00392582
0.0039408
0.00397056
0.00402546
0.00406726
0.00406058
0.0040481
0.00406812
0.00407252
0.00403179
0.00402407
0.00404341
0.00404359
0.0040324
0.0040544
0.00409372
0.00415533
0.00422174
0.00426806
0.00420613
0.00411028
0.00411256
0.00417192
0.00422033
0.00426536
0.00429889
0.004303
0.00431697
0.00430854
0.0043183
0.00432688
0.00435496
0.00435478
0.00436268
0.00440321
0.00443326
0.00446365
0.00449748
0.00454541
0.00460571
0.00466161
0.00473155
0.00475841
0.00482859
0.00490052
0.00496858
0.0050203
0.00505146
0.00506231
0.0050554
0.00504981
0.00493544
0.00483229
0.00464797
0.0233214
0.0226605
0.0165109
0.0099737
0.00631365
0.00535163
0.00558656
0.00589452
0.00593176
0.00577089
0.00554462
0.00535475
0.00523923
0.00512283
0.00495963
0.0048293
0.00475522
0.00467219
0.0045912
0.0045606
0.00454365
0.00447934
0.00435917
0.00421033
0.00411561
0.00410806
0.0040977
0.00402587
0.00394447
0.00391066
0.00390884
0.00387156
0.00379924
0.00377102
0.00379859
0.00382082
0.00383797
0.00388586
0.00394196
0.00398585
0.00400746
0.00399553
0.003943
0.00388986
0.00387603
0.0039007
0.00392652
0.00394185
0.00397147
0.00402562
0.00406722
0.00406119
0.00404918
0.00406897
0.00407329
0.00403288
0.00402521
0.00404428
0.00404435
0.00403316
0.00405493