/*--------------------------------*- C++ -*----------------------------------*\
| =========                 |                                                 |
| \\      /  F ield         | OpenFOAM: The Open Source CFD Toolbox           |
|  \\    /   O peration     | Version:  2506                                  |
|   \\  /    A nd           | Website:  www.openfoam.com                      |
|    \\/     M anipulation  |                                                 |
\*---------------------------------------------------------------------------*/
FoamFile
{
    version     2.0;
    format      ascii;
    arch        "LSB;label=32;scalar=64";
    class       volVectorField;
    location    "9.85";
    object      U;
}
// * * * * * * * * * * * * * * * * * * * * * * * * * * * * * * * * * * * * * //

dimensions      [0 1 -1 0 0 0 0];

internalField   nonuniform List<vector> 
9600
(
(0.685685 0.00089894 0)
(1.22486 -0.000137589 0)
(0.780419 -0.0215467 0)
(1.30374 -0.00371338 0)
(0.916874 0.0137575 0)
(1.14869 0.0219726 0)
(0.890069 -0.0107269 0)
(1.10976 -0.0219676 0)
(0.837497 -0.0414604 0)
(1.1826 -0.0320401 0)
(0.890507 -0.020263 0)
(1.18183 -0.0057652 0)
(0.951554 -0.00362729 0)
(1.15237 0.0060561 0)
(0.939115 0.00541488 0)
(1.11684 0.0054093 0)
(0.92288 0.00395505 0)
(1.11501 -0.00875312 0)
(0.907608 0.000643804 0)
(1.12821 -0.0177443 0)
(0.711238 0.00143741 0)
(1.19178 -0.000538846 0)
(0.801252 -0.0227105 0)
(1.28483 -0.00470112 0)
(0.937016 0.0144776 0)
(1.12187 0.0224128 0)
(0.963275 -0.0103517 0)
(1.07362 -0.0208994 0)
(0.892066 -0.0429836 0)
(1.12769 -0.0327455 0)
(0.922481 -0.0206579 0)
(1.14619 -0.006675 0)
(0.988965 -0.00334683 0)
(1.11782 0.00639984 0)
(0.991333 0.00617005 0)
(1.0677 0.00574829 0)
(0.99884 0.00410937 0)
(1.04316 -0.00903498 0)
(1.01116 0.000743324 0)
(1.02323 -0.0196824 0)
(0.756588 0.00196841 0)
(1.13948 -0.000955933 0)
(0.830782 -0.0237008 0)
(1.24054 -0.0056018 0)
(0.973127 0.015862 0)
(1.09756 0.0224025 0)
(1.01292 -0.0099059 0)
(1.04836 -0.020141 0)
(0.932664 -0.0431535 0)
(1.06598 -0.0329443 0)
(0.960235 -0.0210665 0)
(1.09665 -0.00766271 0)
(1.02835 -0.00300997 0)
(1.08226 0.00649578 0)
(1.03203 0.00715833 0)
(1.04566 0.00564331 0)
(1.03226 0.00442692 0)
(1.03587 -0.00882327 0)
(1.03166 0.000773752 0)
(1.03285 -0.0153747 0)
(0.812966 0.00255662 0)
(1.08188 -0.00124459 0)
(0.863769 -0.0246434 0)
(1.1773 -0.00660942 0)
(1.01162 0.0169884 0)
(1.08679 0.0221 0)
(1.05108 -0.00932087 0)
(1.03608 -0.0192224 0)
(0.961482 -0.0430593 0)
(1.01656 -0.0334073 0)
(0.982805 -0.0216297 0)
(1.05653 -0.00873397 0)
(1.04683 -0.00296235 0)
(1.06483 0.00646111 0)
(1.05028 0.00775037 0)
(1.0485 0.00559596 0)
(1.04623 0.0046522 0)
(1.04458 -0.00882432 0)
(1.03896 0.00101096 0)
(1.03792 -0.0138275 0)
(0.87095 0.00319502 0)
(1.0324 -0.00140435 0)
(0.893238 -0.0254392 0)
(1.10963 -0.00781774 0)
(1.04084 0.0174534 0)
(1.08908 0.0217718 0)
(1.0757 -0.00861814 0)
(1.03524 -0.0181835 0)
(0.97859 -0.0423426 0)
(0.987683 -0.0337091 0)
(0.988467 -0.0222765 0)
(1.0323 -0.0098292 0)
(1.04882 -0.00331701 0)
(1.05951 0.00631067 0)
(1.05975 0.00800916 0)
(1.05804 0.00561323 0)
(1.05828 0.00474402 0)
(1.0539 -0.00845799 0)
(1.04638 0.00107324 0)
(1.04094 -0.0123826 0)
(0.922293 0.00379628 0)
(1.00007 -0.00139159 0)
(0.915732 -0.0260437 0)
(1.05172 -0.00914165 0)
(1.05695 0.017242 0)
(1.09765 0.0214794 0)
(1.0902 -0.00784537 0)
(1.04027 -0.0170449 0)
(0.989182 -0.0413461 0)
(0.975289 -0.0338923 0)
(0.985602 -0.0229956 0)
(1.01914 -0.0109646 0)
(1.045 -0.00396453 0)
(1.0585 0.00593693 0)
(1.06713 0.00801083 0)
(1.06827 0.00552468 0)
(1.06959 0.00484306 0)
(1.06307 -0.00787498 0)
(1.05311 0.00135132 0)
(1.0444 -0.0105639 0)
(0.961607 0.00427347 0)
(0.986686 -0.00118612 0)
(0.931712 -0.0264177 0)
(1.011 -0.0104722 0)
(1.06225 0.0164336 0)
(1.10608 0.0211526 0)
(1.097 -0.00700454 0)
(1.04578 -0.0158354 0)
(0.996591 -0.0400799 0)
(0.971753 -0.0338898 0)
(0.981319 -0.0236877 0)
(1.01147 -0.0121657 0)
(1.04073 -0.00483899 0)
(1.0588 0.00527852 0)
(1.0734 0.00775473 0)
(1.07747 0.00532847 0)
(1.0791 0.0049706 0)
(1.07089 -0.00707819 0)
(1.05846 0.00179265 0)
(1.04726 -0.0084626 0)
(0.987112 0.00457099 0)
(0.987766 -0.000822532 0)
(0.943816 -0.0265417 0)
(0.986887 -0.0117787 0)
(1.0609 0.0151359 0)
(1.1104 0.0207734 0)
(1.09749 -0.00610753 0)
(1.04886 -0.0146319 0)
(1.00219 -0.038676 0)
(0.971937 -0.0337466 0)
(0.978386 -0.0243228 0)
(1.00611 -0.0134429 0)
(1.0365 -0.00591119 0)
(1.0588 0.00434466 0)
(1.07784 0.00727536 0)
(1.08414 0.00505983 0)
(1.08559 0.00514423 0)
(1.07583 -0.00606685 0)
(1.0616 0.002383 0)
(1.04848 -0.0061645 0)
(1.00034 0.00468062 0)
(0.996125 -0.000379636 0)
(0.95464 -0.0264179 0)
(0.974275 -0.0130156 0)
(1.05553 0.0135334 0)
(1.10863 0.0203569 0)
(1.0925 -0.00517309 0)
(1.04869 -0.0134888 0)
(1.00638 -0.0371828 0)
(0.973716 -0.0334761 0)
(0.976972 -0.0248744 0)
(1.00139 -0.0147377 0)
(1.03116 -0.00713706 0)
(1.05667 0.00316997 0)
(1.07888 0.00660849 0)
(1.08658 0.00474953 0)
(1.08762 0.00535382 0)
(1.07664 -0.00486488 0)
(1.06157 0.00308928 0)
(1.04737 -0.00377135 0)
(1.0049 0.00463615 0)
(1.00546 5.43785e-05 0)
(0.965359 -0.026075 0)
(0.968059 -0.0141149 0)
(1.04666 0.0118262 0)
(1.1001 0.0199141 0)
(1.08302 -0.00425062 0)
(1.04556 -0.0124706 0)
(1.00926 -0.0356769 0)
(0.976403 -0.0331068 0)
(0.976546 -0.0253107 0)
(0.996512 -0.0159649 0)
(1.02373 -0.00844169 0)
(1.0508 0.00180211 0)
(1.07488 0.00579005 0)
(1.08334 0.00442346 0)
(1.08402 0.00558267 0)
(1.07255 -0.00353727 0)
(1.05773 0.00387751 0)
(1.04356 -0.00138842 0)
(1.00482 0.00449242 0)
(1.01221 0.000414178 0)
(0.975646 -0.025568 0)
(0.965322 -0.0150063 0)
(1.0344 0.0101618 0)
(1.08548 0.0194455 0)
(1.07062 -0.00339915 0)
(1.04034 -0.011623 0)
(1.01089 -0.0342142 0)
(0.979658 -0.0326596 0)
(0.976699 -0.0255838 0)
(0.991382 -0.0170406 0)
(1.01427 -0.0097309 0)
(1.0407 0.000332006 0)
(1.06517 0.00486367 0)
(1.07391 0.00408778 0)
(1.07456 0.00581328 0)
(1.06363 -0.0021556 0)
(1.05014 0.00467457 0)
(1.03717 0.000870459 0)
(1.00319 0.00430391 0)
(1.01557 0.000666272 0)
(0.984535 -0.0249602 0)
(0.964928 -0.0156433 0)
(1.0201 0.00864817 0)
(1.06716 0.0189426 0)
(1.05732 -0.00267486 0)
(1.03417 -0.0109775 0)
(1.01142 -0.0328513 0)
(0.983075 -0.0321599 0)
(0.977249 -0.0256718 0)
(0.986527 -0.0178945 0)
(1.00397 -0.0108946 0)
(1.02746 -0.00112467 0)
(1.05071 0.00388642 0)
(1.05931 0.00374581 0)
(1.06029 0.00599832 0)
(1.05093 -0.000825234 0)
(1.03963 0.00538532 0)
(1.0288 0.00291302 0)
(1.00162 0.00410649 0)
(1.01629 0.000819732 0)
(0.991339 -0.0243131 0)
(0.966285 -0.0160266 0)
(1.00627 0.00734741 0)
(1.04852 0.0183936 0)
(1.04506 -0.00211214 0)
(1.02816 -0.0105354 0)
(1.0111 -0.0316161 0)
(0.986197 -0.0316352 0)
(0.978093 -0.0255892 0)
(0.982623 -0.0184918 0)
(0.994523 -0.0118418 0)
(1.01334 -0.00244871 0)
(1.03394 0.00292663 0)
(1.04194 0.00341337 0)
(1.04344 0.00608768 0)
(1.03632 0.000363593 0)
(1.02766 0.00594619 0)
(1.01945 0.00464629 0)
(1.00061 0.00391686 0)
(1.01556 0.000897975 0)
(0.996027 -0.0236707 0)
(0.968705 -0.0161836 0)
(0.995191 0.00628298 0)
(1.0325 0.0177835 0)
(1.03506 -0.00172377 0)
(1.02301 -0.0102713 0)
(1.01029 -0.0305071 0)
(0.98869 -0.0311129 0)
(0.979089 -0.0253629 0)
(0.980015 -0.0188527 0)
(0.987183 -0.0125409 0)
(1.00069 -0.0035531 0)
(1.01773 0.00204691 0)
(1.02471 0.0030985 0)
(1.02666 0.00606286 0)
(1.02191 0.00136321 0)
(1.01586 0.00634504 0)
(1.01024 0.00600856 0)
(1.0001 0.0037416 0)
(1.0143 0.000917715 0)
(0.99904 -0.0230488 0)
(0.97146 -0.0161601 0)
(0.987741 0.00543832 0)
(1.02047 0.0171173 0)
(1.02762 -0.00148296 0)
(1.01895 -0.0101437 0)
(1.0093 -0.0295033 0)
(0.990456 -0.0306028 0)
(0.980074 -0.0250372 0)
(0.978586 -0.0190268 0)
(0.982279 -0.0130057 0)
(0.990907 -0.00439799 0)
(1.00422 0.0012933 0)
(1.0099 0.00280186 0)
(1.01206 0.00594165 0)
(1.00939 0.00215208 0)
(1.00555 0.00658751 0)
(1.00211 0.00701461 0)
(0.999872 0.00358019 0)
(1.01302 0.000901148 0)
(1.00093 -0.0224464 0)
(0.974027 -0.0160174 0)
(0.983469 0.00476652 0)
(1.01229 0.0164112 0)
(1.02235 -0.00135107 0)
(1.01588 -0.0101116 0)
(1.00832 -0.0285783 0)
(0.991596 -0.0301028 0)
(0.980931 -0.024653 0)
(0.977969 -0.0190591 0)
(0.979393 -0.0132781 0)
(0.984212 -0.00498858 0)
(0.994255 0.000677973 0)
(0.998594 0.00253531 0)
(1.00074 0.00575329 0)
(0.999632 0.00274854 0)
(0.997483 0.00670116 0)
(0.99565 0.0077206 0)
(0.999761 0.00343032 0)
(1.01191 0.000859909 0)
(1.0021 -0.0218609 0)
(0.976177 -0.0157973 0)
(0.981333 0.00422589 0)
(1.00698 0.0156768 0)
(1.01866 -0.0012956 0)
(1.01359 -0.010142 0)
(1.00744 -0.0277098 0)
(0.992298 -0.0296027 0)
(0.981617 -0.0242382 0)
(0.977807 -0.0189864 0)
(0.977863 -0.0134112 0)
(0.980038 -0.00537714 0)
(0.987598 0.000188826 0)
(0.990789 0.00230643 0)
(0.992762 0.00552797 0)
(0.992734 0.00319559 0)
(0.991793 0.00671558 0)
(0.991013 0.00819243 0)
(0.999679 0.00328952 0)
(1.01101 0.000797669 0)
(1.0028 -0.0212864 0)
(0.977892 -0.0155282 0)
(0.980401 0.00377663 0)
(1.00358 0.0149349 0)
(1.01605 -0.00128523 0)
(1.01191 -0.010208 0)
(1.00667 -0.0268799 0)
(0.992739 -0.029097 0)
(0.982149 -0.0238066 0)
(0.977865 -0.0188373 0)
(0.97714 -0.0134505 0)
(0.977628 -0.00562106 0)
(0.983487 -0.000193932 0)
(0.985844 0.00210385 0)
(0.98759 0.0052905 0)
(0.98827 0.00352832 0)
(0.98818 0.00665067 0)
(0.988039 0.00848797 0)
(0.999583 0.00315585 0)
(1.01033 0.000717816 0)
(1.00315 -0.0207148 0)
(0.979252 -0.0152315 0)
(0.980096 0.00339987 0)
(1.0014 0.0141807 0)
(1.01417 -0.00131244 0)
(1.01069 -0.0102964 0)
(1.00601 -0.0260767 0)
(0.993043 -0.0285818 0)
(0.982567 -0.0233663 0)
(0.978023 -0.0186299 0)
(0.976877 -0.0134291 0)
(0.976357 -0.00577314 0)
(0.981116 -0.000499061 0)
(0.982958 0.00191126 0)
(0.984482 0.00505352 0)
(0.985619 0.00377367 0)
(0.98615 0.00652842 0)
(0.986382 0.00864965 0)
(0.999449 0.00302825 0)
(1.00983 0.000622941 0)
(1.00324 -0.0201418 0)
(0.980345 -0.0149174 0)
(0.98014 0.00307705 0)
(1.00004 0.0134104 0)
(1.01282 -0.00136956 0)
(1.00982 -0.0103926 0)
(1.00544 -0.025294 0)
(0.993286 -0.0280446 0)
(0.98291 -0.0229271 0)
(0.978229 -0.0183769 0)
(0.97688 -0.0133686 0)
(0.975807 -0.00587007 0)
(0.979855 -0.000751396 0)
(0.981435 0.00171682 0)
(0.982766 0.00481871 0)
(0.984204 0.00395845 0)
(0.985206 0.00636731 0)
(0.985661 0.00869935 0)
(0.999271 0.00290548 0)
(1.00946 0.000516241 0)
(1.00315 -0.0195635 0)
(0.981248 -0.0145947 0)
(0.980405 0.00278719 0)
(0.999253 0.0126325 0)
(1.01183 -0.00144768 0)
(1.0092 -0.0104845 0)
(1.00495 -0.0245277 0)
(0.993506 -0.0274808 0)
(0.983216 -0.0224869 0)
(0.978471 -0.018091 0)
(0.977047 -0.0132814 0)
(0.975717 -0.00593713 0)
(0.979286 -0.000967019 0)
(0.980769 0.00151591 0)
(0.981943 0.00457943 0)
(0.983576 0.0041053 0)
(0.984955 0.006184 0)
(0.98555 0.0086452 0)
(0.999059 0.00278659 0)
(1.00918 0.000398574 0)
(1.00295 -0.0189739 0)
(0.982013 -0.0142705 0)
(0.980828 0.00252084 0)
(0.998855 0.0118462 0)
(1.01108 -0.00154985 0)
(1.00871 -0.0105645 0)
(1.00451 -0.0237765 0)
(0.993717 -0.0268934 0)
(0.983514 -0.0220425 0)
(0.978753 -0.0177791 0)
(0.977327 -0.0131767 0)
(0.975928 -0.00599536 0)
(0.97915 -0.00115749 0)
(0.980626 0.00131109 0)
(0.981676 0.00432682 0)
(0.983428 0.00421431 0)
(0.985116 0.00599936 0)
(0.985805 0.00850996 0)
(0.998837 0.00267211 0)
(1.00893 0.000270606 0)
(1.00269 -0.0183741 0)
(0.982679 -0.0139459 0)
(0.981365 0.00227033 0)
(0.998706 0.0110527 0)
(1.01048 -0.00167265 0)
(1.00827 -0.0106267 0)
(1.0041 -0.0230384 0)
(0.99392 -0.0262835 0)
(0.983826 -0.0215943 0)
(0.979082 -0.017449 0)
(0.977696 -0.0130576 0)
(0.976338 -0.00605547 0)
(0.979292 -0.00132976 0)
(0.980788 0.00109957 0)
(0.981746 0.00406087 0)
(0.983553 0.00427729 0)
(0.985503 0.00582145 0)
(0.986256 0.00832401 0)
(0.998639 0.00256217 0)
(1.00865 0.000134864 0)
(1.00242 -0.0177641 0)
(0.983277 -0.0136275 0)
(0.981983 0.00202597 0)
(0.9987 0.0102548 0)
(1.00996 -0.00181353 0)
(1.00782 -0.0106691 0)
(1.0037 -0.022312 0)
(0.994107 -0.0256512 0)
(0.984163 -0.0211422 0)
(0.979454 -0.0171047 0)
(0.978138 -0.0129222 0)
(0.976874 -0.00612672 0)
(0.979609 -0.00149064 0)
(0.981113 0.000883346 0)
(0.982007 0.00378463 0)
(0.983808 0.00430086 0)
(0.98599 0.00564282 0)
(0.986788 0.00809139 0)
(0.998496 0.00245736 0)
(1.00834 -9.18277e-06 0)
(1.00215 -0.0171409 0)
(0.98383 -0.0133133 0)
(0.982647 0.00178298 0)
(0.998762 0.00945962 0)
(1.00948 -0.00197365 0)
(1.00734 -0.0106889 0)
(1.00331 -0.021596 0)
(0.994271 -0.0250004 0)
(0.984527 -0.0206858 0)
(0.979857 -0.0167516 0)
(0.978639 -0.0127677 0)
(0.977482 -0.0062088 0)
(0.980032 -0.00164976 0)
(0.981507 0.000668374 0)
(0.982365 0.00349953 0)
(0.984104 0.00429136 0)
(0.986493 0.00546099 0)
(0.987331 0.00779408 0)
(0.998424 0.0023569 0)
(1.00799 -0.00015921 0)
(1.0019 -0.0165086 0)
(0.98436 -0.0130001 0)
(0.983325 0.00153992 0)
(0.998842 0.00867203 0)
(1.00903 -0.00214906 0)
(1.00681 -0.0106847 0)
(1.00294 -0.0208931 0)
(0.994408 -0.0243336 0)
(0.984917 -0.020225 0)
(0.980277 -0.0163925 0)
(0.979181 -0.0125995 0)
(0.978123 -0.0062931 0)
(0.980513 -0.00180784 0)
(0.981921 0.000454636 0)
(0.982768 0.00320536 0)
(0.984395 0.00425056 0)
(0.986965 0.00528836 0)
(0.987852 0.00743224 0)
(0.998418 0.0022616 0)
(1.00762 -0.000313403 0)
(1.00167 -0.0158742 0)
(0.984884 -0.0126912 0)
(0.983987 0.00129378 0)
(0.998912 0.00789216 0)
(1.00858 -0.00233816 0)
(1.00624 -0.0106588 0)
(1.00258 -0.0202058 0)
(0.994521 -0.0236524 0)
(0.985329 -0.0197581 0)
(0.9807 -0.0160292 0)
(0.979751 -0.0124157 0)
(0.978777 -0.00638363 0)
(0.981022 -0.00196422 0)
(0.98233 0.000244012 0)
(0.983187 0.00289623 0)
(0.984672 0.00417634 0)
(0.987386 0.005146 0)
(0.988342 0.0070407 0)
(0.998461 0.00217184 0)
(1.00726 -0.000471339 0)
(1.00145 -0.0152397 0)
(0.985415 -0.0123819 0)
(0.984616 0.00104393 0)
(0.998955 0.00712353 0)
(1.00814 -0.00253976 0)
(1.00566 -0.0106138 0)
(1.00223 -0.0195311 0)
(0.994614 -0.0229614 0)
(0.98576 -0.0192833 0)
(0.981121 -0.0156653 0)
(0.980337 -0.0122151 0)
(0.979435 -0.00647519 0)
(0.981545 -0.00212324 0)
(0.982731 4.49977e-05 0)
(0.983613 0.0025847 0)
(0.984945 0.00405445 0)
(0.987756 0.00502818 0)
(0.988794 0.00666534 0)
(0.998526 0.00208355 0)
(1.00692 -0.000625883 0)
(1.00126 -0.0146064 0)
(0.985962 -0.0120672 0)
(0.985209 0.00078973 0)
(0.998965 0.00636785 0)
(1.00769 -0.00275078 0)
(1.00507 -0.0105497 0)
(1.0019 -0.0188695 0)
(0.994694 -0.0222648 0)
(0.986206 -0.0188038 0)
(0.981541 -0.0152959 0)
(0.98093 -0.0120055 0)
(0.980096 -0.00655741 0)
(0.982072 -0.00228346 0)
(0.983127 -0.000146784 0)
(0.984034 0.00228555 0)
(0.985223 0.00388018 0)
(0.988084 0.0048953 0)
(0.989208 0.00632653 0)
(0.998591 0.00199699 0)
(1.00662 -0.000777375 0)
(1.00108 -0.0139756 0)
(0.986526 -0.0117453 0)
(0.985772 0.000529834 0)
(0.998943 0.00562575 0)
(1.00723 -0.00296795 0)
(1.00448 -0.0104684 0)
(1.00156 -0.01822 0)
(0.994768 -0.0215642 0)
(0.986666 -0.0183181 0)
(0.981965 -0.0149214 0)
(0.981527 -0.0117872 0)
(0.980764 -0.00662907 0)
(0.9826 -0.00243986 0)
(0.983523 -0.000341228 0)
(0.984448 0.00199659 0)
(0.98551 0.00367837 0)
(0.988378 0.00472895 0)
(0.989588 0.00600927 0)
(0.998642 0.00191305 0)
(1.00634 -0.000926462 0)
(1.00092 -0.0133529 0)
(0.987103 -0.0114167 0)
(0.986322 0.000267508 0)
(0.998899 0.0048967 0)
(1.00675 -0.00319275 0)
(1.00391 -0.0103779 0)
(1.00123 -0.0175844 0)
(0.994839 -0.0208591 0)
(0.987133 -0.0178256 0)
(0.982398 -0.0145394 0)
(0.982123 -0.0115612 0)
(0.981443 -0.00669055 0)
(0.983128 -0.00258526 0)
(0.983921 -0.000524836 0)
(0.984854 0.00170774 0)
(0.985805 0.00346832 0)
(0.988644 0.00454566 0)
(0.989936 0.00569501 0)
(0.998678 0.00183156 0)
(1.00608 -0.00107087 0)
(1.00078 -0.0127401 0)
(0.98769 -0.0110811 0)
(0.986875 4.53104e-06 0)
(0.998841 0.00418472 0)
(1.00626 -0.00342513 0)
(1.00337 -0.0102732 0)
(1.00089 -0.0169647 0)
(0.994912 -0.02016 0)
(0.987602 -0.0173326 0)
(0.982843 -0.0141481 0)
(0.982716 -0.0113267 0)
(0.982132 -0.00674264 0)
(0.983658 -0.00272193 0)
(0.984321 -0.000693876 0)
(0.985255 0.00141078 0)
(0.986113 0.00323714 0)
(0.988887 0.0043606 0)
(0.990252 0.00538565 0)
(0.998702 0.00175011 0)
(1.00581 -0.00120642 0)
(1.00065 -0.0121368 0)
(0.988278 -0.0107358 0)
(0.987441 -0.000261137 0)
(0.998779 0.0034903 0)
(1.00576 -0.00366218 0)
(1.00284 -0.0101536 0)
(1.00055 -0.0163571 0)
(0.994984 -0.0194695 0)
(0.988069 -0.0168373 0)
(0.983299 -0.0137491 0)
(0.983302 -0.0110817 0)
(0.98283 -0.00678441 0)
(0.984194 -0.0028538 0)
(0.984719 -0.00084824 0)
(0.985652 0.00111858 0)
(0.986437 0.0029703 0)
(0.989119 0.00416978 0)
(0.990536 0.00509636 0)
(0.99872 0.00167072 0)
(1.00553 -0.00133264 0)
(1.00053 -0.0115487 0)
(0.988865 -0.0103867 0)
(0.988023 -0.000524903 0)
(0.998721 0.00281435 0)
(1.00527 -0.00390297 0)
(1.00233 -0.0100262 0)
(1.0002 -0.0157607 0)
(0.995057 -0.0187825 0)
(0.988531 -0.0163431 0)
(0.983764 -0.0133412 0)
(0.983878 -0.0108266 0)
(0.983532 -0.00681804 0)
(0.98474 -0.00297967 0)
(0.985117 -0.000986035 0)
(0.986045 0.000846228 0)
(0.98678 0.00267674 0)
(0.989353 0.00395556 0)
(0.990787 0.00483677 0)
(0.998737 0.00159597 0)
(1.00524 -0.00145615 0)
(1.00042 -0.0109709 0)
(0.989445 -0.0100394 0)
(0.988618 -0.000785591 0)
(0.99867 0.00216172 0)
(1.00479 -0.00414679 0)
(1.00185 -0.00989081 0)
(0.999848 -0.0151724 0)
(0.995126 -0.018103 0)
(0.988987 -0.0158593 0)
(0.984233 -0.0129256 0)
(0.984439 -0.0105581 0)
(0.984234 -0.00684208 0)
(0.985298 -0.00310324 0)
(0.985514 -0.00111371 0)
(0.986431 0.000594715 0)
(0.987136 0.00237495 0)
(0.989599 0.00370841 0)
(0.99101 0.00460291 0)
(0.998756 0.00152359 0)
(1.00495 -0.00157178 0)
(1.00031 -0.0104044 0)
(0.990016 -0.00969629 0)
(0.989218 -0.00104142 0)
(0.998625 0.00154099 0)
(1.00432 -0.0043918 0)
(1.00139 -0.00974645 0)
(0.9995 -0.0145905 0)
(0.995191 -0.0174326 0)
(0.989437 -0.0153889 0)
(0.984706 -0.0125039 0)
(0.984984 -0.0102694 0)
(0.984928 -0.00685463 0)
(0.985866 -0.00322765 0)
(0.985912 -0.00122783 0)
(0.986812 0.000365956 0)
(0.987503 0.00207634 0)
(0.989866 0.00343253 0)
(0.991219 0.00437271 0)
(0.998777 0.00145399 0)
(1.00466 -0.00167842 0)
(1.0002 -0.00985012 0)
(0.990576 -0.00935802 0)
(0.989817 -0.00129517 0)
(0.998585 0.000952449 0)
(1.00387 -0.00464123 0)
(1.00095 -0.00960478 0)
(0.999158 -0.0140126 0)
(0.995248 -0.0167673 0)
(0.989882 -0.0149335 0)
(0.985183 -0.0120882 0)
(0.98551 -0.00996203 0)
(0.985609 -0.00685696 0)
(0.986446 -0.00335539 0)
(0.986312 -0.00132828 0)
(0.987185 0.000160058 0)
(0.987874 0.00178139 0)
(0.990151 0.00313687 0)
(0.991426 0.00412121 0)
(0.9988 0.00138782 0)
(1.00438 -0.00178082 0)
(1.0001 -0.00929978 0)
(0.991122 -0.00903094 0)
(0.990406 -0.00155116 0)
(0.998548 0.000396582 0)
(1.00343 -0.00488488 0)
(1.00055 -0.00947058 0)
(0.998827 -0.0134415 0)
(0.995295 -0.0161044 0)
(0.990322 -0.0144894 0)
(0.985667 -0.0116864 0)
(0.986017 -0.00963504 0)
(0.986273 -0.00684344 0)
(0.987038 -0.0034959 0)
(0.986717 -0.00142261 0)
(0.987547 -2.07865e-05 0)
(0.988244 0.00149128 0)
(0.990451 0.00283134 0)
(0.991644 0.00383771 0)
(0.998825 0.00132599 0)
(1.0041 -0.00188146 0)
(1.00001 -0.00875997 0)
(0.991654 -0.00870931 0)
(0.990983 -0.00180969 0)
(0.998512 -0.000113615 0)
(1.00301 -0.00511444 0)
(1.00017 -0.00934332 0)
(0.998511 -0.0128827 0)
(0.99533 -0.0154422 0)
(0.990756 -0.0140525 0)
(0.986159 -0.0113041 0)
(0.986506 -0.00929374 0)
(0.986912 -0.0068054 0)
(0.987639 -0.00364523 0)
(0.987132 -0.00151777 0)
(0.987895 -0.000168462 0)
(0.988606 0.00121475 0)
(0.990761 0.00252304 0)
(0.991877 0.00353102 0)
(0.998852 0.00126794 0)
(1.00384 -0.0019798 0)
(0.999919 -0.00823526 0)
(0.99217 -0.00838394 0)
(0.991546 -0.00207036 0)
(0.998477 -0.000583042 0)
(1.00261 -0.00532597 0)
(0.999825 -0.00923057 0)
(0.998214 -0.0123412 0)
(0.995354 -0.0147797 0)
(0.991181 -0.0136224 0)
(0.986662 -0.0109459 0)
(0.986981 -0.00894935 0)
(0.987523 -0.00673975 0)
(0.988247 -0.00379954 0)
(0.987562 -0.00162463 0)
(0.988231 -0.000284282 0)
(0.988955 0.000959333 0)
(0.991074 0.00221004 0)
(0.992123 0.00321003 0)
(0.998878 0.0012106 0)
(1.00359 -0.00206843 0)
(0.999843 -0.00773232 0)
(0.992669 -0.00805359 0)
(0.992093 -0.00233678 0)
(0.998442 -0.00101715 0)
(1.00222 -0.00550168 0)
(0.99951 -0.00913139 0)
(0.997941 -0.0118248 0)
(0.995367 -0.0141123 0)
(0.991594 -0.0131911 0)
(0.987178 -0.0106084 0)
(0.987447 -0.00860374 0)
(0.988102 -0.00664634 0)
(0.988857 -0.00395767 0)
(0.988015 -0.00175145 0)
(0.988559 -0.000376545 0)
(0.989283 0.000735685 0)
(0.991385 0.00189327 0)
(0.992382 0.00287763 0)
(0.998905 0.00115598 0)
(1.00336 -0.00215037 0)
(0.999777 -0.00725849 0)
(0.993149 -0.0077077 0)
(0.992625 -0.00261601 0)
(0.998413 -0.00142818 0)
(1.00184 -0.00563761 0)
(0.999225 -0.00904291 0)
(0.997696 -0.0113433 0)
(0.995371 -0.013443 0)
(0.991991 -0.0127506 0)
(0.987705 -0.0102904 0)
(0.987909 -0.00826175 0)
(0.988646 -0.00652246 0)
(0.989462 -0.00410756 0)
(0.988495 -0.00190158 0)
(0.988886 -0.000459245 0)
(0.989582 0.000553279 0)
(0.991683 0.00157824 0)
(0.992653 0.00252646 0)
(0.998933 0.00110131 0)
(1.00314 -0.00221603 0)
(0.999724 -0.00682065 0)
(0.993608 -0.00734318 0)
(0.993138 -0.00289969 0)
(0.998392 -0.00182652 0)
(1.00149 -0.00572779 0)
(0.998967 -0.00894528 0)
(0.997484 -0.0109017 0)
(0.995371 -0.0127886 0)
(0.99237 -0.012298 0)
(0.988242 -0.00998921 0)
(0.98837 -0.00793678 0)
(0.989156 -0.00637131 0)
(0.990056 -0.00423972 0)
(0.989006 -0.0020788 0)
(0.989226 -0.000549257 0)
(0.989853 0.00041636 0)
(0.991954 0.00128885 0)
(0.992933 0.00215346 0)
(0.998961 0.00104325 0)
(1.00293 -0.00225755 0)
(0.999685 -0.00643158 0)
(0.994045 -0.00694915 0)
(0.99363 -0.00316601 0)
(0.998385 -0.0022274 0)
(1.00114 -0.0057839 0)
(0.998735 -0.00882865 0)
(0.997304 -0.0104958 0)
(0.995372 -0.0121562 0)
(0.99273 -0.0118259 0)
(0.988785 -0.00968884 0)
(0.988833 -0.00762572 0)
(0.989633 -0.00619746 0)
(0.990629 -0.00434331 0)
(0.989546 -0.00227452 0)
(0.989595 -0.000661047 0)
(0.990104 0.000303753 0)
(0.992185 0.00105169 0)
(0.993205 0.00178308 0)
(0.99899 0.000983045 0)
(1.00273 -0.00227671 0)
(0.999664 -0.00609001 0)
(0.994461 -0.00654103 0)
(0.994094 -0.0033987 0)
(0.998392 -0.00263679 0)
(1.00083 -0.0058136 0)
(0.998528 -0.00868769 0)
(0.997157 -0.010122 0)
(0.995378 -0.0115554 0)
(0.993072 -0.0113411 0)
(0.989333 -0.00938433 0)
(0.9893 -0.00733412 0)
(0.990077 -0.00600967 0)
(0.991175 -0.0044148 0)
(0.990107 -0.00248026 0)
(0.989999 -0.000803553 0)
(0.990353 0.000186044 0)
(0.992377 0.000861079 0)
(0.993448 0.00145805 0)
(0.999019 0.000917914 0)
(1.00255 -0.00226883 0)
(0.999661 -0.00579061 0)
(0.994859 -0.00614182 0)
(0.994525 -0.00358415 0)
(0.998415 -0.00304577 0)
(1.00054 -0.00583088 0)
(0.998342 -0.00850686 0)
(0.997041 -0.00976479 0)
(0.995395 -0.0109883 0)
(0.9934 -0.0108469 0)
(0.989882 -0.00907111 0)
(0.989774 -0.00706676 0)
(0.990494 -0.0058148 0)
(0.991685 -0.00445061 0)
(0.990682 -0.00268819 0)
(0.990441 -0.000980929 0)
(0.990615 5.46453e-05 0)
(0.992547 0.000686746 0)
(0.993645 0.00119761 0)
(0.999048 0.000848087 0)
(1.00237 -0.00223523 0)
(0.999674 -0.00553054 0)
(0.995242 -0.00576484 0)
(0.994919 -0.00369458 0)
(0.998451 -0.0034359 0)
(1.00029 -0.00585412 0)
(0.998181 -0.00828249 0)
(0.996953 -0.00941312 0)
(0.995424 -0.0104607 0)
(0.993715 -0.0103519 0)
(0.990428 -0.00874659 0)
(0.990255 -0.00681856 0)
(0.990891 -0.00562014 0)
(0.992157 -0.00444959 0)
(0.991255 -0.00288685 0)
(0.990921 -0.00119478 0)
(0.990898 -8.64939e-05 0)
(0.992709 0.000511963 0)
(0.993804 0.000979309 0)
(0.999078 0.000771344 0)
(1.0022 -0.00217201 0)
(0.999701 -0.00530458 0)
(0.995616 -0.00542869 0)
(0.995276 -0.00372026 0)
(0.998493 -0.00378692 0)
(1.00007 -0.00588697 0)
(0.998047 -0.00802778 0)
(0.996887 -0.0090527 0)
(0.995468 -0.00997129 0)
(0.994022 -0.00987496 0)
(0.990969 -0.00842578 0)
(0.990742 -0.0065928 0)
(0.991274 -0.00543478 0)
(0.992588 -0.0044138 0)
(0.991814 -0.00306005 0)
(0.991437 -0.00144069 0)
(0.991211 -0.00024685 0)
(0.992871 0.000343487 0)
(0.993942 0.000767451 0)
(0.999108 0.000689181 0)
(1.00203 -0.00208715 0)
(0.999737 -0.00510247 0)
(0.995986 -0.00513887 0)
(0.995597 -0.00368207 0)
(0.998532 -0.0040774 0)
(0.999904 -0.00593706 0)
(0.997947 -0.00777057 0)
(0.996843 -0.00866512 0)
(0.995526 -0.0094991 0)
(0.994321 -0.00942313 0)
(0.991501 -0.00812103 0)
(0.991235 -0.00638526 0)
(0.991653 -0.00526304 0)
(0.992983 -0.00434911 0)
(0.992342 -0.00318668 0)
(0.991978 -0.0016969 0)
(0.991565 -0.000441401 0)
(0.993036 0.000190822 0)
(0.994072 0.00055163 0)
(0.999138 0.000603987 0)
(1.00187 -0.00198664 0)
(0.999779 -0.00491264 0)
(0.996355 -0.00490365 0)
(0.995886 -0.0036036 0)
(0.99856 -0.00428803 0)
(0.999772 -0.00599724 0)
(0.997887 -0.007524 0)
(0.99682 -0.00826095 0)
(0.995592 -0.00903246 0)
(0.994612 -0.00899226 0)
(0.992024 -0.00783558 0)
(0.991732 -0.00619611 0)
(0.992032 -0.00510073 0)
(0.993353 -0.0042683 0)
(0.992836 -0.00326606 0)
(0.992529 -0.00193456 0)
(0.991969 -0.000675713 0)
(0.993215 3.76423e-05 0)
(0.994195 0.000348972 0)
(0.999167 0.000514517 0)
(1.00172 -0.00187172 0)
(0.99982 -0.00471923 0)
(0.996726 -0.00472586 0)
(0.99615 -0.00350599 0)
(0.998572 -0.00441452 0)
(0.999673 -0.00605407 0)
(0.997872 -0.00730497 0)
(0.99682 -0.00785432 0)
(0.995661 -0.00855116 0)
(0.994889 -0.00856552 0)
(0.992534 -0.00756431 0)
(0.992235 -0.0060298 0)
(0.992414 -0.00495091 0)
(0.993703 -0.00418058 0)
(0.993294 -0.00330896 0)
(0.993068 -0.00212884 0)
(0.992416 -0.000931612 0)
(0.993427 -0.000135112 0)
(0.99431 0.000174821 0)
(0.999196 0.000425409 0)
(1.00157 -0.00175816 0)
(0.999853 -0.00451672 0)
(0.997095 -0.00460469 0)
(0.996398 -0.00339778 0)
(0.998565 -0.00444081 0)
(0.999594 -0.00606902 0)
(0.997904 -0.00714455 0)
(0.996854 -0.00747573 0)
(0.995733 -0.00806797 0)
(0.995144 -0.00813736 0)
(0.993024 -0.00729706 0)
(0.992739 -0.00588342 0)
(0.992803 -0.00481913 0)
(0.994038 -0.00408374 0)
(0.993722 -0.00331997 0)
(0.993586 -0.00227533 0)
(0.99289 -0.00117473 0)
(0.993686 -0.000333233 0)
(0.994422 2.04651e-05 0)
(0.999224 0.000342298 0)
(1.00142 -0.00164738 0)
(0.999873 -0.00430079 0)
(0.997462 -0.00454846 0)
(0.996641 -0.00331366 0)
(0.99854 -0.00438454 0)
(0.999516 -0.00600499 0)
(0.997971 -0.00699934 0)
(0.996928 -0.00712263 0)
(0.995814 -0.007585 0)
(0.995376 -0.00769743 0)
(0.993488 -0.00702654 0)
(0.993242 -0.00575549 0)
(0.993204 -0.00471734 0)
(0.994365 -0.00399209 0)
(0.994121 -0.00331294 0)
(0.994075 -0.00239462 0)
(0.993371 -0.0013968 0)
(0.99399 -0.000557421 0)
(0.994553 -0.000141178 0)
(0.99925 0.000259814 0)
(1.00128 -0.00155254 0)
(0.999873 -0.00404397 0)
(0.997819 -0.00450256 0)
(0.996891 -0.00326736 0)
(0.998509 -0.00430164 0)
(0.999437 -0.00590712 0)
(0.998065 -0.0068744 0)
(0.997045 -0.00682734 0)
(0.995908 -0.00710971 0)
(0.995579 -0.00721792 0)
(0.993913 -0.00671949 0)
(0.993731 -0.00561913 0)
(0.993615 -0.00463532 0)
(0.994693 -0.00390519 0)
(0.994495 -0.00328189 0)
(0.994533 -0.00247635 0)
(0.993848 -0.00158156 0)
(0.99433 -0.000772999 0)
(0.994715 -0.000307527 0)
(0.999272 0.000200341 0)
(1.00115 -0.00149263 0)
(0.999858 -0.00378228 0)
(0.998155 -0.0044563 0)
(0.997142 -0.00323902 0)
(0.998471 -0.00415543 0)
(0.999346 -0.00572004 0)
(0.998175 -0.00674428 0)
(0.997211 -0.00662487 0)
(0.996038 -0.00670942 0)
(0.995766 -0.00675551 0)
(0.99429 -0.00639452 0)
(0.994193 -0.00547424 0)
(0.994032 -0.00457366 0)
(0.995028 -0.00384007 0)
(0.99485 -0.00324619 0)
(0.994958 -0.00253014 0)
(0.994309 -0.00173659 0)
(0.994693 -0.000979728 0)
(0.994911 -0.00048747 0)
(0.999292 0.000136343 0)
(1.00103 -0.00143116 0)
(0.999826 -0.0034915 0)
(0.998471 -0.0044057 0)
(0.997412 -0.00326844 0)
(0.998448 -0.00400978 0)
(0.999234 -0.00544655 0)
(0.998263 -0.00653989 0)
(0.9974 -0.0064396 0)
(0.996203 -0.00636463 0)
(0.995945 -0.00630753 0)
(0.994622 -0.00603492 0)
(0.994613 -0.00529497 0)
(0.994443 -0.00450811 0)
(0.995372 -0.00379885 0)
(0.995196 -0.00321619 0)
(0.995354 -0.0025603 0)
(0.994743 -0.00185324 0)
(0.995062 -0.00116416 0)
(0.995137 -0.000663806 0)
(0.999308 0.000100463 0)
(1.00094 -0.00144912 0)
(0.999785 -0.00325033 0)
(0.998751 -0.00435236 0)
(0.997687 -0.00329621 0)
(0.998453 -0.00383277 0)
(0.999126 -0.00512625 0)
(0.998337 -0.00627844 0)
(0.997609 -0.00627007 0)
(0.996414 -0.0061208 0)
(0.996136 -0.00591971 0)
(0.994912 -0.00567084 0)
(0.994983 -0.00508173 0)
(0.994831 -0.0044251 0)
(0.995718 -0.00377026 0)
(0.995543 -0.00320037 0)
(0.995733 -0.00258704 0)
(0.995151 -0.00194786 0)
(0.995427 -0.0013257 0)
(0.995388 -0.000840885 0)
(0.999321 7.44242e-05 0)
(1.00085 -0.00145385 0)
(0.99974 -0.00298365 0)
(0.999012 -0.00422182 0)
(0.997992 -0.00336722 0)
(0.998491 -0.00371342 0)
(0.999006 -0.00481639 0)
(0.998369 -0.00597224 0)
(0.997796 -0.00606607 0)
(0.996655 -0.00592048 0)
(0.996361 -0.0055984 0)
(0.995188 -0.00530887 0)
(0.995308 -0.00481867 0)
(0.995185 -0.00430059 0)
(0.996056 -0.0037232 0)
(0.995889 -0.00318221 0)
(0.996099 -0.00260282 0)
(0.995539 -0.00201878 0)
(0.995779 -0.00145041 0)
(0.995655 -0.000997284 0)
(0.999333 5.64093e-05 0)
(1.00079 -0.00142276 0)
(0.999698 -0.00269018 0)
(0.999212 -0.00401211 0)
(0.998272 -0.00342541 0)
(0.998571 -0.00365786 0)
(0.998917 -0.00451425 0)
(0.998392 -0.00564141 0)
(0.997967 -0.00584139 0)
(0.996907 -0.00576048 0)
(0.996612 -0.00538907 0)
(0.995457 -0.00502388 0)
(0.995581 -0.00456575 0)
(0.995485 -0.00416822 0)
(0.996366 -0.0036825 0)
(0.996223 -0.00318397 0)
(0.99645 -0.00263527 0)
(0.995905 -0.00208969 0)
(0.996113 -0.00156758 0)
(0.995918 -0.00113881 0)
(0.999344 5.99431e-05 0)
(1.00073 -0.00141619 0)
(0.999664 -0.00243456 0)
(0.999387 -0.00378097 0)
(0.998544 -0.00345089 0)
(0.998682 -0.00368817 0)
(0.998837 -0.00428663 0)
(0.998372 -0.00532793 0)
(0.998086 -0.00557874 0)
(0.997141 -0.00556116 0)
(0.996888 -0.00519084 0)
(0.995753 -0.00477228 0)
(0.995838 -0.00429245 0)
(0.99574 -0.00396995 0)
(0.996645 -0.0035959 0)
(0.996543 -0.00315897 0)
(0.996794 -0.00265452 0)
(0.996259 -0.00213656 0)
(0.996437 -0.00166517 0)
(0.996177 -0.00125455 0)
(0.999354 6.17977e-05 0)
(1.0007 -0.00137246 0)
(0.999639 -0.0022048 0)
(0.999501 -0.00352555 0)
(0.998755 -0.00341601 0)
(0.998815 -0.00371205 0)
(0.998819 -0.00407718 0)
(0.998381 -0.00498958 0)
(0.998207 -0.00526886 0)
(0.997368 -0.0053307 0)
(0.997164 -0.00501038 0)