/*--------------------------------*- C++ -*----------------------------------*\
| =========                 |                                                 |
| \\      /  F ield         | OpenFOAM: The Open Source CFD Toolbox           |
|  \\    /   O peration     | Version:  2506                                  |
|   \\  /    A nd           | Website:  www.openfoam.com                      |
|    \\/     M anipulation  |                                                 |
\*---------------------------------------------------------------------------*/
FoamFile
{
    version     2.0;
    format      ascii;
    arch        "LSB;label=32;scalar=64";
    class       surfaceScalarField;
    location    "4.15";
    object      phi;
}
// * * * * * * * * * * * * * * * * * * * * * * * * * * * * * * * * * * * * * //

dimensions      [0 3 -1 0 0 0 0];

oriented        oriented;

internalField   nonuniform List<scalar> 
19000
(
1.17525e-06
7.31094e-07
1.15569e-06
-1.35958e-06
1.15869e-06
7.67266e-07
1.15719e-06
1.0292e-07
1.14961e-06
8.82417e-07
1.09301e-06
-1.41074e-06
1.18902e-06
1.26114e-06
1.12366e-06
-1.45126e-06
1.15715e-06
-1.8114e-07
1.16545e-06
7.11654e-07
1.13746e-06
2.9747e-07
1.16911e-06
8.58321e-07
1.13783e-06
5.15299e-07
1.12964e-06
4.98613e-07
1.12962e-06
4.49142e-07
1.10581e-06
-1.47927e-07
1.12518e-06
2.47002e-07
1.07999e-06
-5.05233e-07
1.10425e-06
-3.11185e-08
-5.67434e-07
1.015e-06
1.23006e-06
7.25297e-07
1.21103e-06
-1.34055e-06
1.2104e-06
7.67894e-07
1.21228e-06
1.01048e-07
1.20328e-06
8.9141e-07
1.14808e-06
-1.35554e-06
1.23762e-06
1.17161e-06
1.17362e-06
-1.38726e-06
1.20305e-06
-2.10573e-07
1.23158e-06
6.8313e-07
1.18922e-06
3.39825e-07
1.23043e-06
8.17119e-07
1.19457e-06
5.51153e-07
1.19072e-06
5.02458e-07
1.17884e-06
4.61032e-07
1.17167e-06
-1.4076e-07
1.1748e-06
2.43869e-07
1.15793e-06
-4.88361e-07
1.1538e-06
-2.69884e-08
-5.25746e-07
1.11211e-06
1.28828e-06
7.19802e-07
1.2688e-06
-1.32107e-06
1.26604e-06
7.70651e-07
1.26823e-06
9.88602e-08
1.26215e-06
8.9749e-07
1.20867e-06
-1.30206e-06
1.28982e-06
1.09046e-06
1.23525e-06
-1.33269e-06
1.25267e-06
-2.27993e-07
1.29524e-06
6.40559e-07
1.24772e-06
3.87344e-07
1.28178e-06
7.83059e-07
1.25363e-06
5.793e-07
1.24477e-06
5.11321e-07
1.23831e-06
4.67496e-07
1.23257e-06
-1.35022e-07
1.24466e-06
2.31779e-07
1.23097e-06
-4.74677e-07
1.23473e-06
-3.07427e-08
-4.89271e-07
1.19825e-06
1.34981e-06
7.14095e-07
1.33051e-06
-1.30177e-06
1.32563e-06
7.75532e-07
1.32781e-06
9.66797e-08
1.32574e-06
8.9956e-07
1.2764e-06
-1.25272e-06
1.34492e-06
1.02193e-06
1.30721e-06
-1.29498e-06
1.30573e-06
-2.26508e-07
1.35434e-06
5.91947e-07
1.31109e-06
4.30594e-07
1.32523e-06
7.68922e-07
1.31043e-06
5.94098e-07
1.30145e-06
5.20295e-07
1.30013e-06
4.6882e-07
1.29772e-06
-1.32613e-07
1.31198e-06
2.17523e-07
1.2986e-06
-4.61302e-07
1.30396e-06
-3.61e-08
-4.48776e-07
1.26347e-06
1.41456e-06
7.07889e-07
1.39588e-06
-1.2831e-06
1.39006e-06
7.81354e-07
1.39195e-06
9.47928e-08
1.39377e-06
8.9774e-07
1.35022e-06
-1.20916e-06
1.4048e-06
9.67351e-07
1.38397e-06
-1.27415e-06
1.36677e-06
-2.09305e-07
1.4108e-06
5.4791e-07
1.37949e-06
4.61909e-07
1.37561e-06
7.72804e-07
1.36905e-06
6.00652e-07
1.36597e-06
5.23377e-07
1.36977e-06
4.6502e-07
1.36913e-06
-1.31967e-07
1.38533e-06
2.01318e-07
1.37008e-06
-4.46052e-07
1.37695e-06
-4.29646e-08
-4.06197e-07
1.33437e-06
1.4823e-06
7.01268e-07
1.46438e-06
-1.26518e-06
1.45933e-06
7.86403e-07
1.46083e-06
9.32981e-08
1.46566e-06
8.92909e-07
1.4284e-06
-1.1719e-06
1.47022e-06
9.25529e-07
1.46048e-06
-1.26442e-06
1.43634e-06
-1.85159e-07
1.47018e-06
5.1407e-07
1.45155e-06
4.80532e-07
1.43941e-06
7.84948e-07
1.43625e-06
6.03813e-07
1.43903e-06
5.20592e-07
1.44701e-06
4.5704e-07
1.4465e-06
-1.31449e-07
1.46266e-06
1.85158e-07
1.44449e-06
-4.27891e-07
1.45218e-06
-5.06535e-08
-3.62508e-07
1.40849e-06
1.55289e-06
6.94599e-07
1.53558e-06
-1.24788e-06
1.53288e-06
7.89108e-07
1.53414e-06
9.2034e-08
1.54087e-06
8.86178e-07
1.50951e-06
-1.14054e-06
1.54128e-06
8.93759e-07
1.53522e-06
-1.25836e-06
1.51146e-06
-1.614e-07
1.53529e-06
4.90247e-07
1.52631e-06
4.89505e-07
1.51418e-06
7.97081e-07
1.513e-06
6.04989e-07
1.51941e-06
5.1418e-07
1.52922e-06
4.47239e-07
1.5276e-06
-1.29835e-07
1.543e-06
1.69765e-07
1.52158e-06
-4.06472e-07
1.5298e-06
-5.88758e-08
-3.18623e-07
1.48591e-06
1.62645e-06
6.88273e-07
1.60945e-06
-1.23087e-06
1.61012e-06
7.8844e-07
1.61146e-06
9.06909e-08
1.61911e-06
8.78529e-07
1.59281e-06
-1.11424e-06
1.61762e-06
8.68946e-07
1.60913e-06
-1.24987e-06
1.58897e-06
-1.41238e-07
1.60578e-06
4.73439e-07
1.60356e-06
4.91725e-07
1.59534e-06
8.05298e-07
1.5962e-06
6.04125e-07
1.60469e-06
5.0569e-07
1.61464e-06
4.37293e-07
1.61115e-06
-1.26346e-07
1.62585e-06
1.55062e-07
1.60142e-06
-3.82041e-07
1.60995e-06
-6.74004e-08
-2.75376e-07
1.5667e-06
1.70337e-06
6.8248e-07
1.68631e-06
-1.21381e-06
1.69075e-06
7.83999e-07
1.69243e-06
8.90112e-08
1.7003e-06
8.70655e-07
1.67804e-06
-1.09197e-06
1.69865e-06
8.48335e-07
1.68409e-06
-1.23531e-06
1.66774e-06
-1.24886e-07
1.68043e-06
4.60743e-07
1.6833e-06
4.88858e-07
1.67991e-06
8.08691e-07
1.68297e-06
6.01062e-07
1.69286e-06
4.95798e-07
1.70254e-06
4.27618e-07
1.69687e-06
-1.20677e-07
1.71106e-06
1.40871e-07
1.68408e-06
-3.55064e-07
1.69263e-06
-7.59505e-08
-2.33568e-07
1.65083e-06
1.78407e-06
6.77133e-07
1.76667e-06
-1.19641e-06
1.77474e-06
7.75926e-07
1.77686e-06
8.68916e-08
1.78461e-06
8.62911e-07
1.76513e-06
-1.0725e-06
1.78367e-06
8.29796e-07
1.76187e-06
-1.21351e-06
1.74847e-06
-1.11487e-07
1.75867e-06
4.50539e-07
1.76569e-06
4.81838e-07
1.76687e-06
8.07511e-07
1.77222e-06
5.95716e-07
1.78324e-06
4.84774e-07
1.79283e-06
4.1803e-07
1.78493e-06
-1.1278e-07
1.79863e-06
1.27175e-07
1.76961e-06
-3.26042e-07
1.77778e-06
-8.41277e-08
-1.9398e-07
1.7382e-06
1.86892e-06
6.7196e-07
1.851e-06
-1.17849e-06
1.86217e-06
7.64753e-07
1.86472e-06
8.43427e-08
1.87233e-06
8.55299e-07
1.85422e-06
-1.05439e-06
1.87218e-06
8.11842e-07
1.84368e-06
-1.18501e-06
1.83249e-06
-1.00299e-07
1.84077e-06
4.42265e-07
1.85126e-06
4.71346e-07
1.85651e-06
8.02263e-07
1.86415e-06
5.88076e-07
1.87605e-06
4.72875e-07
1.88572e-06
4.08354e-07
1.8756e-06
-1.02655e-07
1.88863e-06
1.14143e-07
1.8581e-06
-2.95515e-07
1.86539e-06
-9.14185e-08
-1.57338e-07
1.82875e-06
1.95817e-06
6.66633e-07
1.93958e-06
-1.15991e-06
1.9531e-06
7.51242e-07
1.95603e-06
8.14108e-08
1.96384e-06
8.4749e-07
1.94564e-06
-1.0362e-06
1.96395e-06
7.93541e-07
1.93015e-06
-1.15122e-06
1.92093e-06
-9.10761e-08
1.92746e-06
4.35728e-07
1.94089e-06
4.5792e-07
1.94962e-06
7.93538e-07
1.95935e-06
5.78347e-07
1.97169e-06
4.60528e-07
1.9814e-06
3.98646e-07
1.96911e-06
-9.03651e-08
1.98121e-06
1.02044e-07
1.94981e-06
-2.64111e-07
1.95565e-06
-9.726e-08
-1.24232e-07
1.92254e-06
2.05195e-06
6.60871e-07
2.0326e-06
-1.14056e-06
2.04762e-06
7.36221e-07
2.05087e-06
7.81625e-08
2.05944e-06
8.38922e-07
2.03995e-06
-1.01671e-06
2.05913e-06
7.74359e-07
2.02152e-06
-1.11361e-06
2.01441e-06
-8.39573e-08
2.01944e-06
4.30691e-07
2.03537e-06
4.41994e-07
2.04679e-06
7.82115e-07
2.05811e-06
5.6703e-07
2.07036e-06
4.48276e-07
2.07988e-06
3.89127e-07
2.06569e-06
-7.61791e-08
2.0766e-06
9.11395e-08
2.04506e-06
-2.32569e-07
2.04894e-06
-1.01143e-07
-9.5083e-08
2.01979e-06
2.15039e-06
6.5448e-07
2.13017e-06
-1.12033e-06
2.14596e-06
7.2043e-07
2.1494e-06
7.47252e-08
2.15936e-06
8.28955e-07
2.13777e-06
-9.95116e-07
2.15814e-06
7.5399e-07
2.11791e-06
-1.07338e-06
2.1131e-06
-7.91465e-08
2.1169e-06
4.26889e-07
2.1349e-06
4.23992e-07
2.14806e-06
7.68957e-07
2.16027e-06
5.54822e-07
2.17203e-06
4.36513e-07
2.18115e-06
3.80008e-07
2.16562e-06
-6.06518e-08
2.17515e-06
8.16125e-08
2.14426e-06
-2.01686e-07
2.14587e-06
-1.0275e-07
-7.00717e-08
2.12086e-06
2.25362e-06
6.47349e-07
2.23243e-06
-1.09915e-06
2.24847e-06
7.04389e-07
2.25188e-06
7.1317e-08
2.26379e-06
8.17044e-07
2.23973e-06
-9.71051e-07
2.26151e-06
7.32212e-07
2.21938e-06
-1.03125e-06
2.21691e-06
-7.66812e-08
2.21958e-06
4.24224e-07
2.23915e-06
4.04415e-07
2.2531e-06
7.55012e-07
2.26552e-06
5.42403e-07
2.27676e-06
4.25272e-07
2.28539e-06
3.71376e-07
2.2693e-06
-4.45605e-08
2.27735e-06
7.35659e-08
2.24782e-06
-1.72157e-07
2.24717e-06
-1.02101e-07
-4.90424e-08
2.22614e-06
2.36179e-06
6.39432e-07
2.33958e-06
-1.07693e-06
2.35562e-06
6.88352e-07
2.35871e-06
6.82277e-08
2.37291e-06
8.02838e-07
2.34633e-06
-9.44466e-07
2.36971e-06
7.0883e-07
2.32603e-06
-9.87571e-07
2.32573e-06
-7.63837e-08
2.3271e-06
4.22853e-07
2.34769e-06
3.83825e-07
2.36175e-06
7.40955e-07
2.37387e-06
5.30284e-07
2.38491e-06
4.14226e-07
2.39306e-06
3.63225e-07
2.37722e-06
-2.87181e-08
2.38376e-06
6.70227e-08
2.35606e-06
-1.44449e-07
2.35344e-06
-9.94869e-08
-3.15949e-08
2.33599e-06
2.47511e-06
6.30722e-07
2.45183e-06
-1.05365e-06
2.46785e-06
6.72333e-07
2.47031e-06
6.5761e-08
2.48695e-06
7.86201e-07
2.45793e-06
-9.15448e-07
2.48309e-06
6.83673e-07
2.43797e-06
-9.42455e-07
2.43954e-06
-7.79513e-08
2.43933e-06
4.23062e-07
2.46039e-06
3.62764e-07
2.4743e-06
7.27053e-07
2.48578e-06
5.18803e-07
2.49715e-06
4.02854e-07
2.5048e-06
3.5557e-07
2.4899e-06
-1.38145e-08
2.49497e-06
6.19489e-08
2.46924e-06
-1.1872e-07
2.46507e-06
-9.53148e-08
-1.72648e-08
2.45074e-06
2.59378e-06
6.21237e-07
2.5694e-06
-1.02928e-06
2.58555e-06
6.5618e-07
2.58714e-06
6.41759e-08
2.60619e-06
7.67154e-07
2.57483e-06
-8.8409e-07
2.60187e-06
6.56627e-07
2.55535e-06
-8.95927e-07
2.55846e-06
-8.1064e-08
2.55645e-06
4.25066e-07
2.57755e-06
3.41664e-07
2.59143e-06
7.13175e-07
2.60203e-06
5.0821e-07
2.61422e-06
3.90658e-07
2.62133e-06
3.48468e-07
2.60775e-06
-2.40873e-10
2.61154e-06
5.81603e-08
2.58763e-06
-9.4807e-08
2.58232e-06
-9.00044e-08
-5.63025e-09
2.57068e-06
2.71805e-06
6.11016e-07
2.69255e-06
-1.00378e-06
2.70906e-06
6.39667e-07
2.70959e-06
6.3653e-08
2.73093e-06
7.45814e-07
2.69729e-06
-8.50449e-07
2.72626e-06
6.27654e-07
2.67831e-06
-8.47977e-07
2.68271e-06
-8.54612e-08
2.67889e-06
4.28886e-07
2.69972e-06
3.20832e-07
2.71398e-06
6.98912e-07
2.72344e-06
4.98751e-07
2.73684e-06
3.77256e-07
2.74332e-06
3.4199e-07
2.73109e-06
1.19831e-08
2.73399e-06
5.52686e-08
2.7115e-06
-7.23225e-08
2.70536e-06
-8.38624e-08
3.56671e-09
2.69616e-06
2.84818e-06
6.00105e-07
2.82155e-06
-9.77146e-07
2.83865e-06
6.22563e-07
2.83801e-06
6.42955e-08
2.86148e-06
7.22345e-07
2.82561e-06
-8.14577e-07
2.85647e-06
5.96794e-07
2.80707e-06
-7.9858e-07
2.81259e-06
-9.0976e-08
2.80716e-06
4.34314e-07
2.82747e-06
3.00521e-07
2.84267e-06
6.8371e-07
2.85075e-06
4.90671e-07
2.86553e-06
3.62473e-07
2.87141e-06
3.36119e-07
2.86019e-06
2.31932e-08
2.86272e-06
5.27404e-08
2.84124e-06
-5.08409e-08
2.83432e-06
-7.6937e-08
1.03408e-08
2.82754e-06
2.98445e-06
5.88555e-07
2.95668e-06
-9.49384e-07
2.97458e-06
6.04672e-07
2.97272e-06
6.61514e-08
2.99815e-06
6.96917e-07
2.96012e-06
-7.76552e-07
2.99277e-06
5.64144e-07
2.94191e-06
-7.47719e-07
2.94845e-06
-9.75158e-08
2.94182e-06
4.40946e-07
2.96132e-06
2.8102e-07
2.97805e-06
6.66976e-07
2.98455e-06
4.84176e-07
3.00066e-06
3.46363e-07
3.00612e-06
3.3066e-07
2.9953e-06
3.40096e-08
2.99799e-06
5.00507e-08
2.97731e-06
-3.01579e-08
2.96937e-06
-6.89974e-08
1.4654e-08
2.96505e-06
3.12715e-06
5.76408e-07
3.09827e-06
-9.20503e-07
3.11709e-06
5.85851e-07
3.11401e-06
6.92392e-08
3.14123e-06
6.69688e-07
3.10117e-06
-7.36491e-07
3.13546e-06
5.29853e-07
3.08317e-06
-6.95425e-07
3.09065e-06
-1.04993e-07
3.08335e-06
4.48239e-07
3.10167e-06
2.62708e-07
3.12049e-06
6.48154e-07
3.12527e-06
4.79397e-07
3.14243e-06
3.29199e-07
3.14785e-06
3.25241e-07
3.1367e-06
4.51612e-08
3.13991e-06
4.68386e-08
3.1202e-06
-1.04434e-08
3.11074e-06
-5.95449e-08
1.65251e-08
3.10887e-06
3.27663e-06
5.63692e-07
3.24664e-06
-8.90519e-07
3.26648e-06
5.66015e-07
3.26215e-06
7.35684e-08
3.29105e-06
6.40788e-07
3.2491e-06
-6.94538e-07
3.28484e-06
4.94109e-07
3.23124e-06
-6.41825e-07
3.23951e-06
-1.1326e-07
3.23217e-06
4.55579e-07
3.24882e-06
2.46059e-07
3.27017e-06
6.26798e-07
3.27324e-06
4.76331e-07
3.291e-06
3.11439e-07
3.29689e-06
3.19352e-07
3.28474e-06
5.73085e-08
3.2886e-06
4.29848e-08
3.27035e-06
7.80724e-09
3.25884e-06
-4.80393e-08
1.62516e-08
3.25911e-06
3.4332e-06
5.50423e-07
3.40213e-06
-8.59453e-07
3.42303e-06
5.45121e-07
3.41745e-06
7.91487e-08
3.44791e-06
6.10329e-07
3.40423e-06
-6.50863e-07
3.44119e-06
4.57147e-07
3.38655e-06
-5.87182e-07
3.39533e-06
-1.22037e-07
3.38859e-06
4.62314e-07
3.40305e-06
2.31596e-07
3.42724e-06
6.02613e-07
3.42875e-06
4.74817e-07
3.4465e-06
2.93693e-07
3.45345e-06
3.12405e-07
3.4399e-06
7.08495e-08
3.44408e-06
3.88115e-08
3.42811e-06
2.3779e-08
3.41421e-06
-3.4144e-08
1.45594e-08
3.4159e-06
3.59723e-06
5.36607e-07
3.5651e-06
-8.27325e-07
3.58706e-06
5.23159e-07
3.58022e-06
8.59916e-08
3.61213e-06
5.78413e-07
3.56694e-06
-6.05663e-07
3.60482e-06
4.19263e-07
3.54953e-06
-5.31894e-07
3.55841e-06
-1.30915e-07
3.55293e-06
4.6779e-07
3.56468e-06
2.19852e-07
3.5918e-06
5.75486e-07
3.59213e-06
4.74494e-07
3.60912e-06
2.76704e-07
3.61769e-06
3.03835e-07
3.6027e-06
8.58399e-08
3.60654e-06
3.49703e-08
3.59362e-06
3.66933e-08
3.57754e-06
-1.8065e-08
1.26585e-08
3.57945e-06
3.76907e-06
5.22245e-07
3.7359e-06
-7.94158e-07
3.75893e-06
5.00128e-07
3.75081e-06
9.41083e-08
3.78407e-06
5.45154e-07
3.73759e-06
-5.59185e-07
3.77603e-06
3.80828e-07
3.72063e-06
-4.76494e-07
3.72907e-06
-1.39351e-07
3.72551e-06
4.71351e-07
3.73406e-06
2.11298e-07
3.76401e-06
5.45537e-07
3.76371e-06
4.74796e-07
3.77915e-06
2.61263e-07
3.78976e-06
2.93226e-07
3.77364e-06
1.01958e-07
3.77626e-06
3.23533e-08
3.76696e-06
4.59878e-08
3.74947e-06
-5.7024e-10
1.20004e-08
3.75013e-06
3.9491e-06
5.07337e-07
3.91491e-06
-7.59975e-07
3.93901e-06
4.7603e-07
3.92962e-06
1.03498e-07
3.96407e-06
5.107e-07
3.91662e-06
-5.11734e-07
3.95516e-06
3.42295e-07
3.90028e-06
-4.21621e-07
3.90766e-06
-1.46729e-07
3.90666e-06
4.72354e-07
3.91169e-06
2.06262e-07
3.94406e-06
5.13168e-07
3.94386e-06
4.74996e-07
3.95699e-06
2.48133e-07
3.96982e-06
2.80394e-07
3.95323e-06
1.18551e-07
3.95367e-06
3.19117e-08
3.94821e-06
5.14487e-08
3.9304e-06
1.72421e-08
1.38071e-08
3.92859e-06
4.13771e-06
4.91882e-07
4.10253e-06
-7.24799e-07
4.12769e-06
4.50869e-07
4.11705e-06
1.14137e-07
4.1525e-06
4.75251e-07
4.10446e-06
-4.63693e-07
4.14255e-06
3.04207e-07
4.08892e-06
-3.67997e-07
4.09457e-06
-1.52376e-07
4.09672e-06
4.7021e-07
4.09812e-06
2.04854e-07
4.13224e-06
4.79052e-07
4.13295e-06
4.74284e-07
4.14314e-06
2.37944e-07
4.15806e-06
2.65473e-07
4.14188e-06
1.34733e-07
4.13939e-06
3.43993e-08
4.13744e-06
5.34051e-08
4.12069e-06
3.39836e-08
1.88746e-08
4.11563e-06
4.3353e-06
4.75881e-07
4.29915e-06
-6.8865e-07
4.32537e-06
4.2465e-07
4.31354e-06
1.25966e-07
4.34973e-06
4.39065e-07
4.30156e-06
-4.15521e-07
4.33858e-06
2.67188e-07
4.287e-06
-3.16419e-07
4.29022e-06
-1.55593e-07
4.29597e-06
4.64458e-07
4.29393e-06
2.0689e-07
4.32891e-06
4.44075e-07
4.33128e-06
4.71913e-07
4.3382e-06
2.31026e-07
4.35473e-06
2.48939e-07
4.33991e-06
1.49551e-07
4.33416e-06
4.01537e-08
4.33482e-06
5.27445e-08
4.3205e-06
4.83061e-08
2.72185e-08
4.31215e-06
4.54231e-06
4.59342e-07
4.50521e-06
-6.51551e-07
4.53246e-06
3.97401e-07
4.51956e-06
1.38871e-07
4.55616e-06
4.02468e-07
4.50839e-06
-3.67755e-07
4.54364e-06
2.31934e-07
4.49492e-06
-2.67696e-07
4.49513e-06
-1.55803e-07
4.50468e-06
4.54913e-07
4.49966e-06
2.11903e-07
4.53452e-06
4.09218e-07
4.53917e-06
4.67261e-07
4.54275e-06
2.27444e-07
4.56024e-06
2.31456e-07
4.54758e-06
1.62205e-07
4.53871e-06
4.90276e-08
4.54074e-06
5.07169e-08
4.52984e-06
5.91993e-08
3.8022e-08
4.51904e-06
4.75918e-06
4.42275e-07
4.72117e-06
-6.13536e-07
4.74938e-06
3.69184e-07
4.73558e-06
1.52679e-07
4.77219e-06
3.65855e-07
4.72544e-06
-3.21006e-07
4.75819e-06
1.99188e-07
4.7131e-06
-2.2261e-07
4.70991e-06
-1.52614e-07
4.72307e-06
4.41752e-07
4.71584e-06
2.19133e-07
4.74959e-06
3.7547e-07
4.75695e-06
4.599e-07
4.7574e-06
2.26991e-07
4.775e-06
2.13864e-07
4.76519e-06
1.7201e-07
4.75368e-06
6.05364e-08
4.75575e-06
4.86503e-08
4.7488e-06
6.61481e-08
4.99558e-08
4.73687e-06
4.98637e-06
4.24698e-07
4.9475e-06
-5.7466e-07
4.97657e-06
3.40116e-07
4.9621e-06
1.67141e-07
4.99827e-06
3.29686e-07
4.95321e-06
-2.7594e-07
4.98271e-06
1.69689e-07
4.94192e-06
-1.81824e-07
4.93521e-06
-1.45905e-07
4.95146e-06
4.25498e-07
4.94293e-06
2.2767e-07
4.97469e-06
3.43709e-07
4.98494e-06
4.4965e-07
4.98269e-06
2.29238e-07
4.99955e-06
1.97007e-07
4.99303e-06
1.78533e-07
4.97965e-06
7.39078e-08
4.98054e-06
4.77637e-08
4.97746e-06
6.92326e-08
6.14542e-08
4.96596e-06
5.22438e-06
4.06637e-07
5.18473e-06
-5.35013e-07
5.21446e-06
3.10385e-07
5.19967e-06
1.81936e-07
5.23488e-06
2.94475e-07
5.1922e-06
-2.33261e-07
5.21775e-06
1.44141e-07
5.18169e-06
-1.45766e-07
5.17168e-06
-1.35894e-07
5.19025e-06
4.06923e-07
5.18133e-06
2.36593e-07
5.21044e-06
3.14595e-07
5.22348e-06
4.36618e-07
5.21916e-06
2.33549e-07
5.23449e-06
1.81681e-07
5.23137e-06
1.81656e-07
5.21714e-06
8.81356e-08
5.21603e-06
4.88705e-08
5.21594e-06
6.93263e-08
7.09876e-08
5.2064e-06
5.4737e-06
3.88128e-07
5.43342e-06
-4.94732e-07
5.46354e-06
2.80262e-07
5.4488e-06
1.96677e-07
5.48251e-06
2.60766e-07
5.44292e-06
-1.9367e-07
5.46393e-06
1.23129e-07
5.43272e-06
-1.14557e-07
5.41996e-06
-1.23136e-07
5.43997e-06
3.86915e-07
5.43144e-06
2.45119e-07
5.45749e-06
2.88551e-07
5.47302e-06
4.21082e-07
5.46733e-06
2.39245e-07
5.48041e-06
1.68596e-07
5.48067e-06
1.81397e-07
5.46651e-06
1.02294e-07
5.4631e-06
5.22829e-08
5.46472e-06
6.77095e-08
7.75116e-08
5.45819e-06
5.73487e-06
3.69212e-07
5.69414e-06
-4.54002e-07
5.72432e-06
2.5009e-07
5.71007e-06
2.10922e-07
5.74172e-06
2.29116e-07
5.70585e-06
-1.57804e-07
5.72197e-06
1.07016e-07
5.6954e-06
-8.79901e-08
5.68067e-06
-1.08406e-07
5.70122e-06
3.66361e-07
5.69366e-06
2.52684e-07
5.71649e-06
2.65723e-07
5.73409e-06
4.03484e-07
5.72767e-06
2.45662e-07
5.73802e-06
1.58246e-07
5.74145e-06
1.77967e-07
5.72818e-06
1.15559e-07
5.72252e-06
5.79464e-08
5.7246e-06
6.56237e-08
8.08373e-08
5.72128e-06
6.00846e-06
3.4994e-07
5.96751e-06
-4.13046e-07
5.99734e-06
2.20255e-07
5.98406e-06
2.24211e-07
6.0131e-06
2.00068e-07
5.98149e-06
-1.26187e-07
5.99275e-06
9.5751e-08
5.97021e-06
-6.54499e-08
5.95438e-06
-9.25718e-08
5.97472e-06
3.46019e-07
5.9684e-06
2.59e-07
5.98808e-06
2.46043e-07
6.00725e-06
3.84314e-07
6.0007e-06
2.52215e-07
6.00803e-06
1.50915e-07
6.01414e-06
1.71855e-07
6.00256e-06
1.27142e-07
5.99497e-06
6.5533e-08
5.99656e-06
6.40361e-08
8.14696e-08
5.99593e-06
6.29506e-06
3.30367e-07
6.25413e-06
-3.72119e-07
6.28326e-06
1.91131e-07
6.27134e-06
2.36123e-07
6.29729e-06
1.7412e-07
6.2703e-06
-9.91916e-08
6.27704e-06
8.90049e-08
6.25775e-06
-4.61568e-08
6.24159e-06
-7.64079e-08
6.26118e-06
3.26431e-07
6.25616e-06
2.64012e-07
6.27285e-06
2.29357e-07
6.29313e-06
3.64038e-07
6.28707e-06
2.58274e-07
6.29118e-06
1.46806e-07
6.29935e-06
1.63682e-07
6.29007e-06
1.36417e-07
6.28115e-06
7.44539e-08
6.28151e-06
6.36743e-08
8.03209e-08
6.28266e-06
6.59528e-06
3.10554e-07
6.55466e-06
-3.31492e-07
6.58271e-06
1.63078e-07
6.57255e-06
2.46279e-07
6.59493e-06
1.5174e-07
6.57277e-06
-7.70301e-08
6.5755e-06
8.62775e-08
6.55854e-06
-2.92021e-08
6.54278e-06
-6.06441e-08
6.56128e-06
3.07933e-07
6.55747e-06
2.67823e-07
6.57127e-06
2.15554e-07
6.59237e-06
3.42944e-07
6.58736e-06
2.63283e-07
6.58833e-06
1.45837e-07
6.59765e-06
1.54357e-07
6.59125e-06
1.42814e-07
6.5815e-06
8.42083e-08
6.58049e-06
6.46856e-08
7.84544e-08
6.58235e-06
6.90978e-06
2.90567e-07
6.8697e-06
-2.91413e-07
6.89637e-06
1.36408e-07
6.88827e-06
2.54378e-07
6.9067e-06
1.33314e-07
6.8892e-06
-5.9533e-08
6.88866e-06
8.68139e-08
6.87306e-06
-1.35981e-08
6.85829e-06
-4.58752e-08
6.87567e-06
2.90549e-07
6.87284e-06
2.70659e-07
6.88385e-06
2.04541e-07
6.90557e-06
3.21222e-07
6.90217e-06
2.66683e-07
6.90032e-06
1.47687e-07
6.90983e-06
1.44854e-07
6.90658e-06
1.46059e-07
6.89664e-06
9.41465e-08
6.89427e-06
6.70597e-08
7.66118e-08
6.89611e-06
7.23923e-06
2.70474e-07
7.19987e-06
-2.52056e-07
7.22494e-06
1.11345e-07
7.21908e-06
2.60232e-07
7.23319e-06
1.19206e-07
7.22008e-06
-4.64284e-08
7.21729e-06
8.96072e-08
7.20214e-06
1.54898e-09
7.18865e-06
-3.23835e-08
7.20505e-06
2.74148e-07
7.20296e-06
2.72756e-07
7.21125e-06
1.96248e-07
7.23327e-06
2.992e-07
7.23213e-06
2.6782e-07
7.22801e-06
1.5181e-07
7.23664e-06
1.36221e-07
7.23661e-06
1.4609e-07
7.22715e-06
1.03604e-07
7.22349e-06
7.07258e-08
7.50893e-08
7.22501e-06
7.58435e-06
2.50353e-07
7.54585e-06
-2.13557e-07
7.56914e-06
8.8049e-08
7.56573e-06
2.63645e-07
7.57512e-06
1.09817e-07
7.56609e-06
-3.73957e-08
7.5621e-06
9.35959e-08
7.54672e-06
1.69278e-08
7.53443e-06
-2.00995e-08
7.55005e-06
2.58529e-07
7.54871e-06
2.74103e-07
7.55422e-06
1.90735e-07
7.57618e-06
2.77244e-07
7.57775e-06
2.66246e-07
7.57215e-06
1.57411e-07
7.57907e-06
1.29304e-07
7.58187e-06
1.43286e-07
7.57375e-06
1.11726e-07
7.5688e-06
7.56711e-08
7.39868e-08
7.56991e-06
7.94587e-06
2.30297e-07
7.90837e-06
-1.7606e-07
7.92975e-06
6.66665e-08
7.92902e-06
2.6438e-07
7.93374e-06
1.05098e-07
7.92834e-06
-3.20004e-08
7.92434e-06
9.76019e-08
7.90831e-06
3.29532e-08
7.89626e-06
-8.05157e-09
7.91123e-06
2.43557e-07
7.91097e-06
2.74365e-07
7.91382e-06
1.87888e-07
7.93508e-06
2.55985e-07
7.93965e-06
2.61673e-07
7.93343e-06
1.63629e-07
7.93812e-06
1.2462e-07
7.94301e-06
1.38391e-07
7.93695e-06
1.17784e-07
7.93102e-06
8.16064e-08
7.35229e-08
7.93148e-06
8.32456e-06
2.10421e-07
8.28825e-06
-1.39751e-07
8.30763e-06
4.72883e-08
8.30977e-06
2.62238e-07
8.31087e-06
1.03997e-07
8.30876e-06
-2.98895e-08
8.30496e-06
1.01395e-07
8.2868e-06
5.11221e-08
8.27403e-06
4.71757e-09
8.28921e-06
2.28369e-07
8.29066e-06
2.72924e-07
8.29119e-06
1.87356e-07
8.31096e-06
2.36216e-07
8.31842e-06
2.54208e-07
8.31251e-06
1.69546e-07
8.31487e-06
1.22259e-07
8.32088e-06
1.32379e-07
8.31734e-06
1.21322e-07
8.31105e-06
8.78961e-08
7.40926e-08
8.31048e-06
8.72121e-06
1.90869e-07
8.68639e-06
-1.04924e-07
8.70349e-06
3.01821e-08
8.70924e-06
2.56492e-07
8.705e-06
1.08234e-07
8.70072e-06
-2.56044e-08
8.69919e-06
1.02925e-07
8.6822e-06
6.81099e-08
8.66921e-06
1.77101e-08
8.68493e-06
2.12641e-07
8.68855e-06
2.69307e-07
8.68755e-06
1.88355e-07
8.70496e-06
2.18803e-07
8.71488e-06
2.44294e-07
8.71006e-06
1.7436e-07
8.71029e-06
1.22032e-07
8.71643e-06
1.26246e-07
8.71546e-06
1.22286e-07
8.70956e-06
9.37975e-08
7.58329e-08
8.70782e-06
9.13664e-06
1.71852e-07
9.10382e-06
-7.21085e-08
9.11785e-06
1.61572e-08
9.127e-06
2.47341e-07
9.11791e-06
1.17317e-07
9.11334e-06
-2.10279e-08
9.11488e-06
1.01387e-07
9.09867e-06
8.43191e-08
9.0842e-06
3.21758e-08
9.09924e-06
1.976e-07
9.10538e-06
2.63166e-07
9.10363e-06
1.90112e-07
9.11829e-06
2.04142e-07
9.12991e-06
2.32674e-07
9.12675e-06
1.77517e-07
9.12527e-06
1.23512e-07
9.13086e-06
1.20653e-07
9.13203e-06
1.21114e-07
9.1273e-06
9.85282e-08
7.85518e-08
9.12458e-06
9.57171e-06
1.53605e-07
9.54141e-06
-4.18068e-08
9.55182e-06
5.7384e-09
9.5653e-06
2.33862e-07
9.55377e-06
1.28852e-07
9.54629e-06
-1.35464e-08
9.54998e-06
9.76896e-08
9.53564e-06
9.86593e-08
9.51997e-06
4.78517e-08
9.53334e-06
1.8423e-07
9.54192e-06
2.5459e-07
9.54016e-06
1.91862e-07
9.55203e-06
1.92278e-07
9.56454e-06
2.20161e-07
9.56327e-06
1.78784e-07
9.56077e-06
1.2602e-07
9.56529e-06
1.1613e-07
9.56801e-06
1.18398e-07
9.56491e-06
1.01626e-07
8.17334e-08
9.56173e-06
1.00273e-05
1.36394e-07
1.00001e-05
-1.46021e-08
1.00065e-05
-6.35907e-10
1.00241e-05
2.16263e-07
1.00119e-05
1.41112e-07
1.00007e-05
-2.43395e-09
1.00055e-05
9.29718e-08
9.99373e-06
1.10386e-07
9.97753e-06
6.40574e-08
9.98854e-06
1.73222e-07
9.99893e-06
2.44195e-07
9.99792e-06
1.92873e-07
1.00072e-05
1.82998e-07
1.00199e-05
2.07501e-07
1.00205e-05
1.78143e-07
1.00176e-05
1.28871e-07
1.00208e-05
1.12936e-07
1.00245e-05
1.14784e-07
1.00231e-05
1.03023e-07
8.47074e-08
1.00201e-05
1.05045e-05
1.20498e-07
1.04811e-05
8.83348e-09
1.0483e-05
-2.49894e-09
1.0504e-05
1.95261e-07
1.04929e-05
1.52212e-07
1.04781e-05
1.2295e-08
1.04823e-05
8.87935e-08
1.04737e-05
1.19024e-07
1.04578e-05
7.99144e-08
1.04661e-05
1.64987e-07
1.04774e-05
2.32803e-07
1.04776e-05
1.92716e-07
1.04849e-05
1.75746e-07
1.0497e-05
1.95365e-07
1.04994e-05
1.75699e-07
1.04967e-05
1.3156e-07
1.04987e-05
1.11027e-07
1.05026e-05
1.10862e-07
1.05027e-05
1.02932e-07
8.69353e-08
1.05004e-05
1.10043e-05
1.06174e-07
1.09852e-05
2.79388e-08
1.09826e-05
1.59878e-10
1.10055e-05
1.72318e-07
1.09974e-05
1.60311e-07
1.09795e-05
3.02539e-08
1.09817e-05
8.65188e-08
1.09762e-05
1.24563e-07
1.09616e-05
9.44996e-08
1.09672e-05
1.5935e-07
1.09787e-05
2.21377e-07
1.09801e-05
1.9129e-07
1.09859e-05
1.6995e-07
1.09971e-05
1.84141e-07
1.10011e-05
1.71748e-07
1.0999e-05
1.33605e-07
1.09998e-05
1.10248e-07
1.10036e-05
1.07088e-07
1.10049e-05
1.01649e-07
8.8218e-08
1.10036e-05
1.15279e-05
9.36074e-08
1.15134e-05
4.2422e-08
1.15069e-05
6.70166e-09
1.15297e-05
1.4955e-07
1.15261e-05
1.63851e-07
1.15059e-05
5.05342e-08
1.15052e-05
8.72065e-08
1.15022e-05
1.2754e-07
1.14897e-05
1.06991e-07
1.14932e-05
1.55869e-07
1.1504e-05
2.10584e-07
1.15065e-05
1.88789e-07
1.15112e-05
1.65221e-07
1.15214e-05
1.7391e-07
1.15266e-05
1.66619e-07
1.15254e-05
1.34749e-07
1.15254e-05
1.10242e-07
1.15288e-05
1.03749e-07
1.15309e-05
9.95349e-08
8.86183e-08
1.15305e-05
1.20765e-05
8.28974e-08
1.20667e-05
5.2243e-08
1.20573e-05
1.61188e-08
1.20778e-05
1.29029e-07
1.20793e-05
1.62343e-07
1.20584e-05
7.14796e-08
1.20541e-05
9.14378e-08
1.20527e-05
1.28939e-07
1.20429e-05
1.16862e-07
1.20449e-05
1.53886e-07
1.20547e-05
2.00753e-07
1.2058e-05
1.85527e-07
1.20619e-05
1.61301e-07
1.20711e-05
1.64703e-07
1.2077e-05
1.60666e-07
1.2077e-05
1.3479e-07
1.20766e-05
1.10626e-07
1.20793e-05
1.01048e-07
1.20819e-05
9.68981e-08
8.82988e-08
1.20823e-05
1.26514e-05
7.40616e-08
1.26456e-05
5.80221e-08
1.26343e-05
2.74966e-08
1.26512e-05
1.12123e-07
1.26571e-05
1.56406e-07
1.26379e-05
9.07142e-08
1.26303e-05
9.90406e-08
1.26292e-05
1.29994e-07
1.2622e-05
1.24042e-07
1.26233e-05
1.52611e-07
1.26321e-05
1.9194e-07
1.26359e-05
1.81782e-07
1.26392e-05
1.58022e-07
1.26472e-05
1.56627e-07
1.26537e-05
1.54169e-07
1.26549e-05
1.33654e-07
1.26545e-05
1.10974e-07
1.26565e-05
9.9082e-08
1.26594e-05
9.39665e-08
8.73508e-08
1.26604e-05
1.3254e-05
6.70076e-08
1.32506e-05
6.14482e-08
1.32387e-05
3.933e-08
1.32509e-05
9.99136e-08
1.32604e-05
1.46975e-07
1.32449e-05
1.06225e-07
1.3235e-05
1.08901e-07
1.32332e-05
1.31763e-07
1.32283e-05
1.28978e-07
1.32296e-05
1.51299e-07
1.32375e-05
1.84076e-07
1.32416e-05
1.77663e-07
1.32444e-05
1.55243e-07
1.32513e-05
1.49712e-07
1.3258e-05
1.47481e-07
1.32602e-05
1.31457e-07
1.32603e-05
1.10839e-07
1.32616e-05
9.77925e-08
1.32645e-05
9.10632e-08
8.57437e-08
1.32661e-05
1.38857e-05
6.14803e-08
1.38847e-05
6.24606e-08
1.38732e-05
5.07802e-08
1.38794e-05
9.37703e-08
1.38902e-05
1.36162e-07
1.38799e-05
1.16537e-07
1.38695e-05
1.19285e-07
1.38665e-05
1.34773e-07
1.3863e-05
1.32473e-07
1.38647e-05
1.49602e-07
1.3872e-05
1.7678e-07
1.38764e-05
1.73233e-07
1.38789e-05
1.52737e-07
1.38846e-05
1.44029e-07
1.38912e-05
1.40904e-07
1.38943e-05
1.28357e-07
1.38951e-05
1.10062e-07
1.3896e-05
9.67942e-08
1.38986e-05
8.85187e-08
8.35032e-08
1.39008e-05
1.45479e-05
5.72353e-08
1.45474e-05
6.30128e-08
1.45378e-05
6.03318e-08
1.45394e-05
9.21592e-08
1.45488e-05
1.26799e-07
1.4544e-05
1.21346e-07
1.45348e-05
1.28421e-07
1.45307e-05
1.38939e-07
1.45278e-05
1.35392e-07
1.45298e-05
1.47572e-07
1.45368e-05
1.6973e-07
1.45416e-05
1.68445e-07
1.45441e-05
1.50273e-07
1.45487e-05
1.39418e-07
1.45548e-05
1.34763e-07
1.45586e-05
1.24636e-07
1.45601e-05
1.08533e-07
1.45612e-05
9.57153e-08
1.45632e-05
8.64703e-08
8.08767e-08
1.45658e-05
1.52422e-05
5.39647e-08
1.52419e-05
6.3228e-08
1.52342e-05
6.80956e-08
1.52328e-05
9.3552e-08
1.52393e-05
1.20244e-07
1.52385e-05
1.22171e-07
1.5232e-05
1.34925e-07
1.52273e-05
1.43622e-07
1.52244e-05
1.38356e-07
1.52264e-05
1.45554e-07
1.52333e-05
1.62822e-07
1.52386e-05
1.63111e-07
1.52412e-05
1.47669e-07
1.5245e-05
1.35614e-07
1.52505e-05
1.29268e-07
1.52546e-05
1.20558e-07
1.52567e-05
1.06392e-07
1.52582e-05
9.4236e-08
1.52599e-05
8.47734e-08
7.82232e-08
1.52626e-05
1.59699e-05
5.13898e-08
1.59694e-05
6.37335e-08
1.59635e-05
7.39767e-08
1.59607e-05
9.64117e-08
1.59641e-05
1.16826e-07
1.59653e-05
1.20949e-07
1.5962e-05
1.38237e-07
1.59578e-05
1.4776e-07
1.59546e-05
1.41598e-07
1.59562e-05
1.43971e-07
1.59628e-05
1.56194e-07
1.59686e-05
1.57325e-07
1.59718e-05
1.44467e-07
1.59751e-05
1.32366e-07
1.59799e-05
1.24464e-07
1.59841e-05
1.16361e-07
1.59866e-05
1.03859e-07
1.59886e-05
9.22471e-08
1.59903e-05
8.30858e-08
7.58537e-08
1.59926e-05
1.67327e-05
4.93181e-08
1.6731e-05
6.54137e-08
1.6727e-05
7.79831e-08
1.67243e-05
9.91089e-08
1.67251e-05
1.16004e-07
1.67265e-05
1.19602e-07
1.67261e-05
1.38575e-07
1.67235e-05
1.50416e-07
1.67202e-05
1.44873e-07
1.67211e-05
1.43063e-07
1.67271e-05
1.50235e-07
1.67332e-05
1.51158e-07
1.67371e-05
1.40583e-07
1.67403e-05
1.29189e-07
1.67444e-05
1.20335e-07
1.67485e-05
1.12237e-07
1.67514e-05
1.01017e-07
1.67537e-05
8.99578e-08
1.67557e-05
8.10338e-08
7.37813e-08
1.67578e-05
1.75321e-05
4.76029e-08
1.75304e-05
6.70862e-08
1.75271e-05
8.12499e-08
1.75251e-05
1.01191e-07
1.75241e-05
1.1696e-07
1.75244e-05
1.19344e-07
1.7526e-05
1.3692e-07
1.75254e-05
1.51069e-07
1.75227e-05
1.47501e-07
1.75229e-05
1.42874e-07
1.75279e-05
1.4521e-07
1.75342e-05
1.44945e-07
1.75387e-05
1.3608e-07
1.75421e-05
1.2571e-07
1.75459e-05
1.16552e-07
1.75498e-05
1.08382e-07
1.75529e-05
9.79308e-08
1.75553e-05
8.7517e-08
1.75577e-05
7.8601e-08
7.17272e-08
1.75598e-05
1.83698e-05
4.61909e-08
1.8368e-05
6.88201e-08
1.83654e-05
8.3918e-08
1.83641e-05
1.02429e-07
1.83625e-05
1.1858e-07
1.83614e-05
1.20458e-07
1.83636e-05
1.34688e-07
1.8365e-05
1.49676e-07
1.83637e-05
1.48847e-07
1.83634e-05
1.43108e-07
1.83675e-05
1.41182e-07
1.83732e-05
1.39183e-07
1.83783e-05
1.31033e-07
1.83821e-05
1.21863e-07
1.83859e-05
1.12755e-07
1.83896e-05
1.04689e-07
1.83928e-05
9.47678e-08
1.83954e-05
8.49305e-08
1.83979e-05
7.60168e-08
6.93891e-08
1.84003e-05
1.92475e-05
4.50553e-08
1.9246e-05
7.03848e-08
1.92436e-05
8.62618e-08
1.92431e-05
1.02986e-07
1.92417e-05
1.1995e-07
1.92395e-05
1.2262e-07
1.92412e-05
1.33022e-07
1.92442e-05
1.4669e-07
1.92444e-05
1.48584e-07
1.92444e-05
1.43147e-07
1.92475e-05
1.38119e-07
1.92526e-05