/*--------------------------------*- C++ -*----------------------------------*\
| =========                 |                                                 |
| \\      /  F ield         | OpenFOAM: The Open Source CFD Toolbox           |
|  \\    /   O peration     | Version:  2506                                  |
|   \\  /    A nd           | Website:  www.openfoam.com                      |
|    \\/     M anipulation  |                                                 |
\*---------------------------------------------------------------------------*/
FoamFile
{
    version     2.0;
    format      ascii;
    arch        "LSB;label=32;scalar=64";
    class       volVectorField;
    location    "4.15";
    object      U;
}
// * * * * * * * * * * * * * * * * * * * * * * * * * * * * * * * * * * * * * //

dimensions      [0 1 -1 0 0 0 0];

internalField   nonuniform List<vector> 
9600
(
(0.968668 0.00739835 0)
(1.03787 -0.0150134 0)
(0.948375 0.00913597 0)
(1.02624 0.00132482 0)
(0.961574 0.0124095 0)
(1.00168 -0.0222939 0)
(0.878895 0.0221156 0)
(1.14401 -0.0272897 0)
(0.794966 -0.00315324 0)
(1.16106 0.0154955 0)
(0.854135 0.00640794 0)
(1.0779 0.0222582 0)
(0.926397 0.013779 0)
(1.01912 0.0148112 0)
(0.918678 0.0147831 0)
(1.00889 -0.00581471 0)
(0.892202 0.010119 0)
(1.02086 -0.0225305 0)
(0.839081 -0.000684708 0)
(1.03289 -0.0296025 0)
(0.970797 0.00732302 0)
(1.03424 -0.0147737 0)
(0.950169 0.00914539 0)
(1.02144 0.0013222 0)
(0.963842 0.0124687 0)
(0.998392 -0.0211994 0)
(0.884656 0.0205484 0)
(1.12642 -0.0256371 0)
(0.803374 -0.00377726 0)
(1.14637 0.0150789 0)
(0.877871 0.00739484 0)
(1.05862 0.0215252 0)
(0.954087 0.0147267 0)
(0.995762 0.0151745 0)
(0.951655 0.0149397 0)
(0.971508 -0.00513596 0)
(0.946547 0.00959063 0)
(0.964432 -0.0214001 0)
(0.934101 -0.000895108 0)
(0.939992 -0.0310539 0)
(0.974969 0.00725837 0)
(1.02943 -0.0145485 0)
(0.954589 0.00915333 0)
(1.01383 0.00129414 0)
(0.968074 0.012617 0)
(0.996264 -0.0203576 0)
(0.895414 0.0188241 0)
(1.10598 -0.024658 0)
(0.830643 -0.0044148 0)
(1.10912 0.014345 0)
(0.91959 0.00859691 0)
(1.02263 0.0203952 0)
(0.975847 0.0157825 0)
(0.978974 0.0153637 0)
(0.96251 0.0152219 0)
(0.966336 -0.00484003 0)
(0.958634 0.0090811 0)
(0.973291 -0.0200149 0)
(0.954211 -0.00198071 0)
(0.958591 -0.0248573 0)
(0.980528 0.00720431 0)
(1.02414 -0.0143369 0)
(0.961161 0.00919161 0)
(1.00622 0.00126237 0)
(0.973816 0.0126849 0)
(0.99537 -0.0195823 0)
(0.910726 0.0175122 0)
(1.08237 -0.0238043 0)
(0.871079 -0.00459953 0)
(1.06179 0.0132853 0)
(0.959432 0.00966064 0)
(0.991186 0.0196505 0)
(0.979134 0.016313 0)
(0.971794 0.0155833 0)
(0.964792 0.0154182 0)
(0.968115 -0.00487612 0)
(0.965966 0.00888642 0)
(0.977291 -0.0200694 0)
(0.964433 -0.00145732 0)
(0.962938 -0.0232223 0)
(0.986541 0.00714568 0)
(1.01881 -0.0141323 0)
(0.968682 0.00926073 0)
(1.00051 0.0012357 0)
(0.98023 0.0126846 0)
(0.995543 -0.0188741 0)
(0.92831 0.0165243 0)
(1.05996 -0.0233561 0)
(0.911463 -0.00438623 0)
(1.02232 0.0121898 0)
(0.984835 0.0105231 0)
(0.975451 0.0195388 0)
(0.975769 0.0165532 0)
(0.969723 0.0158007 0)
(0.969572 0.0153878 0)
(0.973981 -0.00474904 0)
(0.973523 0.0081904 0)
(0.984329 -0.0193092 0)
(0.972088 -0.00179597 0)
(0.969912 -0.0212552 0)
(0.992166 0.00708058 0)
(1.01368 -0.0139348 0)
(0.975919 0.00933402 0)
(0.99727 0.00121594 0)
(0.986526 0.0126378 0)
(0.996306 -0.0182531 0)
(0.94566 0.0157332 0)
(1.04148 -0.0231342 0)
(0.942344 -0.00393461 0)
(0.998912 0.011339 0)
(0.996307 0.0111081 0)
(0.972647 0.0198396 0)
(0.975668 0.0167209 0)
(0.972384 0.0158132 0)
(0.977015 0.0152163 0)
(0.982405 -0.00473842 0)
(0.981552 0.00753412 0)
(0.990886 -0.018568 0)
(0.978838 -0.00218443 0)
(0.975775 -0.0191729 0)
(0.996907 0.00701254 0)
(1.00888 -0.0137447 0)
(0.982059 0.00938665 0)
(0.996055 0.00120168 0)
(0.992255 0.0125549 0)
(0.997127 -0.0177282 0)
(0.961162 0.0151277 0)
(1.02786 -0.0230131 0)
(0.96148 -0.00341898 0)
(0.98876 0.0107492 0)
(0.999704 0.0114209 0)
(0.975945 0.02022 0)
(0.97992 0.0168091 0)
(0.978771 0.0156634 0)
(0.985402 0.0149164 0)
(0.990735 -0.004717 0)
(0.9891 0.00691409 0)
(0.99643 -0.0176952 0)
(0.984684 -0.00259356 0)
(0.980731 -0.0169885 0)
(1.00062 0.00694602 0)
(1.00456 -0.0135593 0)
(0.986813 0.00940343 0)
(0.996097 0.00118778 0)
(0.997232 0.0124506 0)
(0.997654 -0.0172879 0)
(0.97422 0.0146709 0)
(1.01862 -0.0228756 0)
(0.971165 -0.00296172 0)
(0.985448 0.0103429 0)
(0.999816 0.0115409 0)
(0.980658 0.0204987 0)
(0.98589 0.0168185 0)
(0.986354 0.015427 0)
(0.993376 0.0145788 0)
(0.997755 -0.00462147 0)
(0.99555 0.00633396 0)
(1.00091 -0.0167095 0)
(0.989695 -0.00301633 0)
(0.984941 -0.014777 0)
(1.00336 0.00688445 0)
(1.00097 -0.0133744 0)
(0.99027 0.00937588 0)
(0.996773 0.00116949 0)
(1.00137 0.0123389 0)
(0.99781 -0.0169181 0)
(0.9847 0.0143073 0)
(1.01273 -0.0226477 0)
(0.975004 -0.00258922 0)
(0.984425 0.0100457 0)
(0.998892 0.0115265 0)
(0.984749 0.0206423 0)
(0.991451 0.016768 0)
(0.993198 0.0151378 0)
(1.00011 0.0142519 0)
(1.00334 -0.00443792 0)
(1.00073 0.00576114 0)
(1.0044 -0.015609 0)
(0.993821 -0.00343043 0)
(0.988475 -0.0126063 0)
(1.00522 0.00682867 0)
(0.998356 -0.0131863 0)
(0.992663 0.00930152 0)
(0.997702 0.00114505 0)
(1.00464 0.0122275 0)
(0.997731 -0.0166024 0)
(0.992561 0.0139927 0)
(1.00916 -0.0222949 0)
(0.976045 -0.00228919 0)
(0.983856 0.0098058 0)
(0.997672 0.0114059 0)
(0.987705 0.0206656 0)
(0.995865 0.016654 0)
(0.998689 0.014814 0)
(1.00542 0.0139397 0)
(1.00766 -0.00418041 0)
(1.00472 0.00519419 0)
(1.00692 -0.0144061 0)
(0.997021 -0.00381017 0)
(0.991283 -0.0105649 0)
(1.00629 0.00677677 0)
(0.996807 -0.0129928 0)
(0.994218 0.00918435 0)
(0.998643 0.00111469 0)
(1.00709 0.0121183 0)
(0.997621 -0.0163196 0)
(0.997877 0.0136976 0)
(1.0071 -0.02182 0)
(0.976194 -0.00205074 0)
(0.983452 0.00960669 0)
(0.996506 0.0111971 0)
(0.989751 0.0205811 0)
(0.999266 0.0164707 0)
(1.00299 0.0144689 0)
(1.00949 0.0136201 0)
(1.01088 -0.00384949 0)
(1.00763 0.00466003 0)
(1.00859 -0.0131148 0)
(0.999314 -0.0041652 0)
(0.993348 -0.00868975 0)
(1.00668 0.00672526 0)
(0.996233 -0.0127922 0)
(0.995111 0.00903328 0)
(0.999403 0.00107869 0)
(1.00884 0.0120093 0)
(0.99764 -0.016046 0)
(1.00096 0.0134029 0)
(1.00597 -0.0212447 0)
(0.976367 -0.00186717 0)
(0.983391 0.00944877 0)
(0.99576 0.0109138 0)
(0.991363 0.0203966 0)
(1.00202 0.0162259 0)
(1.0064 0.0141044 0)
(1.01249 0.0132876 0)
(1.01315 -0.0034387 0)
(1.00956 0.00416917 0)
(1.00951 -0.0117795 0)
(1.00081 -0.00447315 0)
(0.994737 -0.00698305 0)
(1.00655 0.00667067 0)
(0.996395 -0.0125837 0)
(0.9955 0.00885924 0)
(0.999844 0.00103713 0)
(1.01 0.0118951 0)
(0.997854 -0.0157602 0)
(1.00234 0.0130963 0)
(1.00537 -0.0205938 0)
(0.976864 -0.00171167 0)
(0.983772 0.00932945 0)
(0.995692 0.010566 0)
(0.992872 0.0201273 0)
(1.0043 0.0159291 0)
(1.00903 0.0137316 0)
(1.0145 0.0129559 0)
(1.01453 -0.00294447 0)
(1.01064 0.00371339 0)
(1.00985 -0.0104526 0)
(1.0017 -0.00467517 0)
(0.995591 -0.00545333 0)
(1.00611 0.00661048 0)
(0.997002 -0.0123662 0)
(0.995553 0.00867254 0)
(0.999921 0.000991557 0)
(1.01066 0.0117665 0)
(0.998233 -0.0154468 0)
(1.00263 0.0127708 0)
(1.00507 -0.0198876 0)
(0.977695 -0.00158919 0)
(0.984476 0.00923826 0)
(0.996251 0.0101606 0)
(0.994272 0.019804 0)
(1.00599 0.0155868 0)
(1.01081 0.0133748 0)
(1.01551 0.0126325 0)
(1.01509 -0.00239621 0)
(1.01104 0.00332054 0)
(1.00976 -0.0091532 0)
(1.0022 -0.00475895 0)
(0.996097 -0.00411069 0)
(1.00553 0.006543 0)
(0.997794 -0.0121388 0)
(0.995437 0.00848086 0)
(0.999697 0.000945482 0)
(1.01093 0.0116136 0)
(0.998698 -0.0150966 0)
(1.00235 0.012421 0)
(1.00495 -0.0191398 0)
(0.978762 -0.00152401 0)
(0.985258 0.00916921 0)
(0.997111 0.00970928 0)
(0.995339 0.0194538 0)
(1.00689 0.0152276 0)
(1.01168 0.0130365 0)
(1.01564 0.0123266 0)
(1.01497 -0.00182274 0)
(1.01094 0.00298519 0)
(1.00941 -0.00791527 0)
(1.00249 -0.00474147 0)
(0.996422 -0.00296211 0)
(1.00494 0.00646746 0)
(0.998592 -0.0119004 0)
(0.995277 0.00828866 0)
(0.999309 0.000902437 0)
(1.01088 0.0114294 0)
(0.999171 -0.0147072 0)
(1.00186 0.0120438 0)
(1.00494 -0.0183581 0)
(0.979952 -0.00150564 0)
(0.985913 0.00912489 0)
(0.997901 0.00923127 0)
(0.995892 0.0190875 0)
(1.00695 0.0148853 0)
(1.01171 0.0126965 0)
(1.01509 0.0120504 0)
(1.01438 -0.00124084 0)
(1.01055 0.00269817 0)
(1.00893 -0.00675363 0)
(1.0027 -0.00463634 0)
(0.99668 -0.00199596 0)
(1.00441 0.00638374 0)
(0.999302 -0.0116508 0)
(0.995142 0.00809723 0)
(0.998902 0.000865501 0)
(1.0106 0.0112112 0)
(0.999607 -0.0142809 0)
(1.00134 0.0116393 0)
(1.005 -0.0175484 0)
(0.981166 -0.001525 0)
(0.986354 0.0091123 0)
(0.99841 0.00873523 0)
(0.995942 0.0187317 0)
(1.00636 0.0145512 0)
(1.01116 0.0123604 0)
(1.01413 0.0117897 0)
(1.01355 -0.00069916 0)
(1.01001 0.00249271 0)
(1.00839 -0.00565102 0)
(1.00286 -0.00446195 0)
(0.99693 -0.00117944 0)
(1.00396 0.00629216 0)
(0.999892 -0.0113898 0)
(0.995053 0.00790581 0)
(0.998573 0.000837845 0)
(1.01019 0.0109587 0)
(0.999986 -0.0138172 0)
(1.00082 0.0112033 0)
(1.00507 -0.0167119 0)
(0.982334 -0.00157633 0)
(0.986585 0.00913886 0)
(0.998626 0.00823373 0)
(0.995657 0.0183859 0)
(1.00542 0.0142339 0)
(1.01032 0.0120187 0)
(1.01301 0.0115404 0)
(1.01264 -0.000208508 0)
(1.00946 0.00234949 0)
(1.00786 -0.00460746 0)
(1.00302 -0.00425422 0)
(0.997195 -0.000501373 0)
(1.00358 0.00619287 0)
(1.00036 -0.0111169 0)
(0.995007 0.00771219 0)
(0.998361 0.000823172 0)
(1.00971 0.0106728 0)
(1.0003 -0.0133169 0)
(1.00033 0.0107345 0)
(1.0051 -0.0158494 0)
(0.983412 -0.00165629 0)
(0.986669 0.00920379 0)
(0.998646 0.00773694 0)
(0.995254 0.0180343 0)
(1.0044 0.0139507 0)
(1.00945 0.0116429 0)
(1.0119 0.0113211 0)
(1.01178 0.000223855 0)
(1.00894 0.00223518 0)
(1.00737 -0.00361788 0)
(1.00319 -0.00402639 0)
(0.997496 1.0698e-05 0)
(1.00326 0.00608624 0)
(1.00072 -0.0108313 0)
(0.994996 0.00751242 0)
(0.998262 0.000824575 0)
(1.00922 0.0103564 0)
(1.00055 -0.0127827 0)
(0.999888 0.0102352 0)
(1.00508 -0.014963 0)
(0.984383 -0.00175618 0)
(0.98669 0.00930673 0)
(0.99859 0.00724473 0)
(0.994908 0.0176691 0)
(1.00347 0.0137038 0)
(1.0087 0.0112096 0)
(1.0109 0.0111329 0)
(1.01101 0.000624534 0)
(1.00851 0.00213134 0)
(1.00693 -0.00266913 0)
(1.00336 -0.00376642 0)
(0.997845 0.000392232 0)
(1.00299 0.00597301 0)
(1.00098 -0.0105334 0)
(0.995013 0.00730456 0)
(0.998252 0.000839904 0)
(1.00875 0.0100117 0)
(1.00074 -0.0122147 0)
(0.999515 0.00970288 0)
(1.00497 -0.0140485 0)
(0.985251 -0.0018697 0)
(0.986731 0.00944342 0)
(0.998549 0.00677105 0)
(0.994713 0.0172687 0)
(1.00271 0.0135037 0)
(1.00814 0.0107229 0)
(1.01005 0.0109679 0)
(1.01036 0.0010158 0)
(1.00817 0.00203196 0)
(1.00655 -0.00174526 0)
(1.00354 -0.0034581 0)
(0.998253 0.000665354 0)
(1.00275 0.00585369 0)
(1.00118 -0.0102236 0)
(0.995052 0.00708696 0)
(0.998301 0.000870828 0)
(1.00831 0.00963913 0)
(1.00087 -0.0116145 0)
(0.999221 0.00914014 0)
(1.00481 -0.0131055 0)
(0.986031 -0.00201511 0)
(0.986842 0.0096025 0)
(0.998567 0.00632218 0)
(0.99469 0.0168236 0)
(1.00213 0.0133466 0)
(1.00777 0.0102034 0)
(1.00934 0.0108151 0)
(1.00981 0.00140236 0)
(1.00791 0.00191581 0)
(1.00622 -0.00083611 0)
(1.00369 -0.00307352 0)
(0.998715 0.000812243 0)
(1.00253 0.0057285 0)
(1.00134 -0.00990178 0)
(0.995108 0.00685738 0)
(0.998382 0.000919341 0)
(1.00789 0.00924202 0)
(1.00096 -0.0109841 0)
(0.998994 0.00855091 0)
(1.0046 -0.0121384 0)
(0.986749 -0.0021777 0)
(0.987034 0.00976825 0)
(0.998651 0.00590726 0)
(0.994814 0.0163092 0)
(1.00167 0.0132511 0)
(1.00754 0.00965866 0)
(1.00875 0.0106385 0)
(1.00931 0.00182073 0)
(1.00773 0.00176742 0)
(1.00594 2.21779e-06 0)
(1.00381 -0.00258643 0)
(0.999223 0.000838475 0)
(1.00233 0.0055979 0)
(1.00146 -0.00956831 0)
(0.99518 0.00661579 0)
(0.998474 0.000983015 0)
(1.00749 0.00882403 0)
(1.00102 -0.0103241 0)
(0.998816 0.00793677 0)
(1.00436 -0.0111494 0)
(0.987431 -0.00235083 0)
(0.987287 0.0099269 0)
(0.998782 0.00554067 0)
(0.995045 0.0157122 0)
(1.00128 0.0132121 0)
(1.0074 0.00910837 0)
(1.00824 0.0104242 0)
(1.00883 0.00227185 0)
(1.00759 0.00158923 0)
(1.00571 0.000725555 0)
(1.00388 -0.0019758 0)
(0.999759 0.000764195 0)
(1.00215 0.00546156 0)
(1.00156 -0.00922255 0)
(0.99527 0.00636049 0)
(0.99856 0.00106502 0)
(1.00711 0.00838323 0)
(1.00106 -0.00963814 0)
(0.998674 0.00730598 0)
(1.00411 -0.0101485 0)
(0.988101 -0.00252157 0)
(0.987577 0.0100604 0)
(0.998937 0.00523538 0)
(0.995343 0.0150457 0)
(1.00093 0.0131991 0)
(1.00729 0.00857473 0)
(1.00781 0.0101741 0)
(1.00834 0.00277964 0)
(1.00749 0.00140635 0)
(1.00553 0.00134268 0)
(1.00389 -0.00124759 0)
(1.00029 0.00065784 0)
(1.00199 0.00531982 0)
(1.00164 -0.00886575 0)
(0.995383 0.00609235 0)
(0.998632 0.00116324 0)
(1.00675 0.00792285 0)
(1.00108 -0.00893275 0)
(0.998561 0.00666635 0)
(1.00385 -0.00913983 0)
(0.988777 -0.00269571 0)
(0.987884 0.0101604 0)
(0.999099 0.00500592 0)
(0.995683 0.0142931 0)
(1.00059 0.0132166 0)
(1.00719 0.00807994 0)
(1.00744 0.00985981 0)
(1.00784 0.0033482 0)
(1.0074 0.00126457 0)
(1.00541 0.00181694 0)
(1.00385 -0.000418283 0)
(1.0008 0.000575948 0)
(1.00184 0.00517327 0)
(1.0017 -0.00849914 0)
(0.995521 0.00581345 0)
(0.998688 0.00127613 0)
(1.0064 0.00744176 0)
(1.00109 -0.00820627 0)
(0.998478 0.00601764 0)
(1.00358 -0.00812869 0)
(0.989465 -0.00286857 0)
(0.988203 0.0102105 0)
(0.999252 0.00486149 0)
(0.996052 0.0134739 0)
(1.00026 0.0132364 0)
(1.00705 0.00764342 0)
(1.00713 0.00946778 0)
(1.00731 0.00395227 0)
(1.0073 0.00120054 0)
(1.00536 0.00211522 0)
(1.00376 0.000433294 0)
(1.00124 0.000596658 0)
(1.00172 0.00502045 0)
(1.00174 -0.00811988 0)
(0.995683 0.00552084 0)
(0.998731 0.001406 0)
(1.00607 0.006944 0)
(1.00108 -0.00746882 0)
(0.998424 0.005373 0)
(1.00331 -0.00713505 0)
(0.990167 -0.00298873 0)
(0.988531 0.0101892 0)
(0.999391 0.00481006 0)
(0.996445 0.0126144 0)
(0.999936 0.0132355 0)
(1.00689 0.00729388 0)
(1.0069 0.00899253 0)
(1.00677 0.00456166 0)
(1.00717 0.00123561 0)
(1.00537 0.00225511 0)
(1.00365 0.00123943 0)
(1.00159 0.00078023 0)
(1.00161 0.00486227 0)
(1.00177 -0.00772951 0)
(0.995865 0.00521422 0)
(0.998764 0.00155165 0)
(1.00576 0.00643624 0)
(1.00105 -0.00672568 0)
(0.998396 0.00474361 0)
(1.00303 -0.00617364 0)
(0.990875 -0.00307803 0)
(0.988874 0.0100947 0)
(0.999511 0.00483539 0)
(0.996861 0.0117218 0)
(0.99963 0.0131942 0)
(1.00668 0.00704304 0)
(1.00673 0.00844852 0)
(1.00625 0.00513274 0)
(1.007 0.00140049 0)
(1.00544 0.00225589 0)
(1.00356 0.00196591 0)
(1.00183 0.00113314 0)
(1.0015 0.00469917 0)
(1.00178 -0.00732911 0)
(0.996061 0.00489465 0)
(0.998791 0.00171414 0)
(1.00546 0.00592122 0)
(1.00102 -0.00598701 0)
(0.99839 0.00414229 0)
(1.00275 -0.00525875 0)
(0.99158 -0.00311845 0)
(0.989235 0.00991404 0)
(0.999608 0.00492744 0)
(0.997298 0.0108226 0)
(0.999349 0.0130849 0)
(1.00641 0.0068945 0)
(1.00662 0.00787654 0)
(1.00575 0.00564101 0)
(1.00678 0.00169664 0)
(1.00556 0.00216486 0)
(1.00351 0.00255006 0)
(1.00196 0.00165694 0)
(1.00141 0.00453008 0)
(1.00179 -0.00691789 0)
(0.996267 0.00456308 0)
(0.998814 0.00189028 0)
(1.00518 0.0054023 0)
(1.00098 -0.00525799 0)
(0.998402 0.00357304 0)
(1.00247 -0.00440741 0)
(0.992274 -0.00308116 0)
(0.989617 0.00964746 0)
(0.999679 0.0050793 0)
(0.997751 0.00994642 0)
(0.999103 0.0129033 0)
(1.0061 0.00684176 0)
(1.00657 0.00729143 0)
(1.0053 0.00604741 0)
(1.00649 0.00211466 0)
(1.00569 0.00206687 0)
(1.00353 0.00294577 0)
(1.002 0.00227824 0)
(1.00131 0.00435605 0)
(1.00179 -0.00649669 0)
(0.996482 0.00421951 0)
(0.998832 0.0020745 0)
(1.00492 0.00488632 0)
(1.00093 -0.00454808 0)
(0.998424 0.00305107 0)
(1.00221 -0.00363486 0)
(0.992949 -0.00297121 0)
(0.990022 0.00932128 0)
(0.999725 0.00526697 0)
(0.998216 0.00911966 0)
(0.998899 0.0126409 0)
(1.00574 0.00687298 0)
(1.00655 0.00670797 0)
(1.00491 0.00633384 0)
(1.00614 0.00262261 0)
(1.00582 0.00200448 0)
(1.00363 0.00314897 0)
(1.002 0.00289357 0)
(1.00122 0.00417685 0)
(1.00179 -0.00606605 0)
(0.996702 0.003866 0)
(0.998847 0.00226538 0)
(1.00466 0.00438216 0)
(1.00088 -0.00387414 0)
(0.998454 0.00259103 0)
(1.00197 -0.00294582 0)
(0.993602 -0.0027889 0)
(0.990447 0.00893836 0)
(0.999745 0.00547113 0)
(0.998682 0.00835931 0)
(0.998748 0.0123036 0)
(1.00533 0.00698567 0)
(1.00656 0.0061771 0)
(1.00462 0.0064911 0)
(1.00574 0.00317931 0)
(1.00591 0.00200161 0)
(1.00382 0.00319186 0)
(1.002 0.00342883 0)
(1.00113 0.00399303 0)
(1.00177 -0.00562798 0)
(0.996928 0.00350606 0)
(0.998857 0.00246031 0)
(1.00442 0.00389336 0)
(1.00083 -0.00324163 0)
(0.998489 0.00220419 0)
(1.00174 -0.00234731 0)
(0.99423 -0.00255468 0)
(0.990893 0.00851715 0)
(0.999742 0.005673 0)
(0.999143 0.00766686 0)
(0.998654 0.0119116 0)
(1.00488 0.00714638 0)
(1.00656 0.00570506 0)
(1.00441 0.0065215 0)
(1.00532 0.00375189 0)
(1.00594 0.00210959 0)
(1.00407 0.0031279 0)
(1.00204 0.0038119 0)
(1.00104 0.00380464 0)
(1.00175 -0.00518224 0)
(0.997158 0.00314527 0)
(0.998864 0.00264823 0)
(1.00419 0.00343129 0)
(1.00078 -0.00266272 0)
(0.998526 0.00189933 0)
(1.00154 -0.00183046 0)
(0.994834 -0.00228668 0)
(0.991359 0.0080809 0)
(0.999718 0.00585446 0)
(0.999591 0.00705003 0)
(0.998624 0.0114554 0)
(1.00441 0.00733239 0)
(1.00655 0.00531228 0)
(1.00429 0.00644093 0)
(1.0049 0.00430289 0)
(1.0059 0.00231861 0)
(1.00435 0.00302366 0)
(1.00216 0.00402134 0)
(1.00095 0.00361165 0)
(1.00173 -0.00473329 0)
(0.997393 0.00279068 0)
(0.998867 0.00282437 0)
(1.00397 0.00300223 0)
(1.00074 -0.00214747 0)
(0.998563 0.00167636 0)
(1.00135 -0.00138922 0)
(0.995414 -0.00197836 0)
(0.991843 0.00764141 0)
(0.999679 0.00600867 0)
(1.00002 0.00650867 0)
(0.998659 0.0109403 0)
(1.00391 0.00753529 0)
(1.00651 0.00502929 0)
(1.00426 0.00625298 0)
(1.0045 0.00479598 0)
(1.00577 0.00260903 0)
(1.00464 0.00294042 0)
(1.00238 0.00407812 0)
(1.00087 0.00341656 0)
(1.00169 -0.00428584 0)
(0.997632 0.00243967 0)
(0.998865 0.00298998 0)
(1.00375 0.00261455 0)
(1.00071 -0.00170447 0)
(0.998601 0.00153341 0)
(1.00118 -0.00101482 0)
(0.99597 -0.00165757 0)
(0.992342 0.00722238 0)
(0.999626 0.00612947 0)
(1.00042 0.00603397 0)
(0.998762 0.0103983 0)
(1.00341 0.00773332 0)
(1.00642 0.00484947 0)
(1.00431 0.00598575 0)
(1.00414 0.00519933 0)
(1.00556 0.00298512 0)
(1.00489 0.00291085 0)
(1.00266 0.00402145 0)
(1.0008 0.00321842 0)
(1.00165 -0.00383995 0)
(0.997875 0.00209724 0)
(0.998862 0.00313683 0)
(1.00354 0.00227289 0)
(1.00069 -0.00132809 0)
(0.998639 0.00145728 0)
(1.00103 -0.000686598 0)
(0.996505 -0.00134265 0)
(0.992855 0.00682981 0)
(0.999562 0.00622464 0)
(1.00079 0.00563823 0)
(0.998933 0.00982422 0)
(1.00293 0.00791208 0)
(1.00628 0.00477136 0)
(1.00442 0.00566232 0)
(1.00386 0.0054973 0)
(1.00529 0.00339528 0)
(1.00508 0.00293939 0)
(1.003 0.00392766 0)
(1.00072 0.00301829 0)
(1.0016 -0.00340005 0)
(0.998121 0.00177251 0)
(0.998858 0.00325807 0)
(1.00333 0.00198418 0)
(1.00068 -0.00102958 0)
(0.998682 0.00144786 0)
(1.00089 -0.000394454 0)
(0.997019 -0.00103785 0)
(0.99338 0.00645881 0)
(0.999493 0.0063098 0)
(1.00112 0.00531551 0)
(0.99917 0.0092096 0)
(1.00247 0.00804764 0)
(1.00607 0.00480218 0)
(1.00458 0.00531124 0)
(1.00366 0.00567633 0)
(1.00498 0.00382541 0)
(1.0052 0.00302954 0)
(1.00335 0.00384455 0)
(1.00066 0.00281765 0)
(1.00153 -0.00296811 0)
(0.998368 0.00146357 0)
(0.998857 0.00335105 0)
(1.00313 0.0017577 0)
(1.00069 -0.000803705 0)
(0.99873 0.00148211 0)
(1.00076 -0.000115729 0)
(0.997512 -0.000763331 0)
(0.993921 0.00610487 0)
(0.999423 0.00637919 0)
(1.00141 0.00506157 0)
(0.999468 0.00858078 0)
(1.00207 0.00812665 0)
(1.00579 0.004924 0)
(1.00475 0.00497058 0)
(1.00356 0.0057264 0)
(1.00466 0.00425339 0)
(1.00524 0.00317638 0)
(1.00369 0.00377523 0)
(1.00059 0.00261535 0)
(1.00146 -0.00254371 0)
(0.998614 0.0011771 0)
(0.998861 0.00340896 0)
(1.00292 0.00159322 0)
(1.00071 -0.000638421 0)
(0.998787 0.00154764 0)
(1.00064 0.000168094 0)
(0.997983 -0.000520027 0)
(0.994477 0.00575554 0)
(0.999359 0.00642681 0)
(1.00164 0.00488256 0)
(0.999817 0.00796161 0)
(1.00174 0.00812651 0)
(1.00546 0.00510065 0)
(1.00491 0.00468951 0)
(1.00356 0.0056524 0)
(1.00435 0.00463449 0)
(1.0052 0.00338307 0)
(1.004 0.00371099 0)
(1.00054 0.00241348 0)
(1.00138 -0.00212754 0)
(0.998859 0.000905499 0)
(0.998872 0.00344203 0)
(1.0027 0.00149227 0)
(1.00074 -0.000532789 0)
(0.998858 0.00162577 0)
(1.00053 0.000451402 0)
(0.99843 -0.000283829 0)
(0.995052 0.005408 0)
(0.99931 0.00645579 0)
(1.00182 0.00478984 0)
(1.0002 0.00734861 0)
(1.00149 0.0080194 0)
(1.00508 0.00530601 0)
(1.00504 0.00449254 0)
(1.00365 0.00547042 0)
(1.00408 0.00493595 0)
(1.00509 0.00365527 0)
(1.00427 0.0036692 0)
(1.00048 0.00221367 0)
(1.0013 -0.00172537 0)
(0.999101 0.000663011 0)
(0.998894 0.0034282 0)
(1.00248 0.00146467 0)
(1.00079 -0.000487581 0)
(0.998949 0.00168409 0)
(1.00042 0.00076802 0)
(0.998849 -4.52733e-05 0)
(0.99564 0.0050578 0)
(0.999285 0.00645263 0)
(1.00195 0.00477382 0)
(1.0006 0.00677341 0)
(1.00132 0.00782259 0)
(1.00468 0.00552012 0)
(1.00512 0.00438263 0)
(1.00382 0.00523773 0)
(1.00388 0.00512708 0)
(1.00492 0.00396613 0)
(1.00448 0.0036828 0)
(1.00044 0.00201392 0)
(1.0012 -0.00133172 0)
(0.99933 0.00044171 0)
(0.998928 0.0033802 0)
(1.00226 0.00149061 0)
(1.00084 -0.000449384 0)
(0.99907 0.0017213 0)
(1.00033 0.00110479 0)
(0.999226 0.000204187 0)
(0.996238 0.00471278 0)
(0.999295 0.00639649 0)
(1.00202 0.00480565 0)
(1.001 0.00626333 0)
(1.00125 0.00754205 0)
(1.00429 0.00570507 0)
(1.00513 0.00435679 0)
(1.00403 0.00499198 0)
(1.00378 0.00520065 0)
(1.00471 0.00425972 0)
(1.0046 0.0037591 0)
(1.0004 0.00181896 0)
(1.00109 -0.000956524 0)
(0.999549 0.000251779 0)
(0.998981 0.00328654 0)
(1.00203 0.00158439 0)
(1.00088 -0.000382302 0)
(0.999213 0.00171393 0)
(1.00024 0.00142031 0)
(0.999563 0.000487399 0)
(0.996839 0.00437102 0)
(0.999348 0.00626036 0)
(1.00204 0.00485097 0)
(1.00137 0.00582295 0)
(1.00127 0.00719745 0)
(1.00392 0.00583583 0)
(1.00508 0.00439693 0)
(1.00426 0.00475847 0)
(1.00377 0.00517352 0)
(1.00452 0.00450688 0)
(1.00464 0.00390083 0)
(1.00036 0.00163079 0)
(1.00098 -0.00060864 0)
(0.999751 0.000111911 0)
(0.999054 0.00312141 0)
(1.0018 0.00174547 0)
(1.00092 -0.000285211 0)
(0.999381 0.00164935 0)
(1.00019 0.00169965 0)
(0.999853 0.000795655 0)
(0.997424 0.00405395 0)
(0.999446 0.00606536 0)
(1.00204 0.004898 0)
(1.00171 0.00547026 0)
(1.00136 0.00682611 0)
(1.00359 0.00590429 0)
(1.00497 0.00448333 0)
(1.00448 0.00456643 0)
(1.00384 0.00506963 0)
(1.00437 0.00468125 0)
(1.00461 0.00407428 0)
(1.00033 0.0014504 0)
(1.00086 -0.000289707 0)
(0.999932 1.08309e-05 0)
(0.999148 0.00291605 0)
(1.00157 0.00191913 0)
(1.00093 -0.00013925 0)
(0.999568 0.00156548 0)
(1.00016 0.00192881 0)
(1.0001 0.00112941 0)
(0.997986 0.00380927 0)
(0.999587 0.00583151 0)
(1.00202 0.00492962 0)
(1.00201 0.00518491 0)
(1.0015 0.00643753 0)
(1.00332 0.00590362 0)
(1.00481 0.00458927 0)
(1.00466 0.00442368 0)
(1.00399 0.00491518 0)
(1.00427 0.0047686 0)
(1.00455 0.00424368 0)
(1.0003 0.00128245 0)
(1.00074 -1.44785e-05 0)
(1.00009 -3.46229e-05 0)
(0.999261 0.00265461 0)
(1.00136 0.0020889 0)
(1.00092 6.82539e-05 0)
(0.999765 0.00148808 0)
(1.00016 0.0021025 0)
(1.00032 0.00146052 0)
(0.998508 0.003619 0)
(0.999761 0.00556515 0)
(1.00199 0.00493057 0)
(1.00226 0.00496022 0)
(1.00169 0.00606057 0)
(1.00312 0.00584702 0)
(1.00462 0.00469792 0)
(1.0048 0.00434243 0)
(1.00418 0.00474842 0)
(1.00425 0.00477644 0)
(1.00448 0.00437927 0)
(1.00028 0.00113009 0)
(1.00062 0.000216299 0)
(1.00021 -2.59989e-05 0)
(0.999393 0.00235699 0)
(1.00118 0.00222792 0)
(1.00089 0.000326189 0)
(0.99996 0.00143232 0)
(1.0002 0.00221444 0)
(1.0005 0.00176192 0)
(0.998986 0.00348448 0)
(0.999963 0.00530103 0)
(1.00197 0.00490676 0)
(1.00247 0.00478253 0)
(1.0019 0.00570722 0)
(1.003 0.00573436 0)
(1.00443 0.00478501 0)
(1.00488 0.00430564 0)
(1.00438 0.00458529 0)
(1.0043 0.00472159 0)
(1.00442 0.00445604 0)
(1.00026 0.00099465 0)
(1.0005 0.000400625 0)
(1.00031 3.65541e-05 0)
(0.999536 0.0020546 0)
(1.00103 0.00231059 0)
(1.00083 0.000625288 0)
(1.00015 0.00141632 0)
(1.00028 0.0022755 0)
(1.00067 0.0020255 0)
(0.999419 0.0034035 0)
(1.00018 0.00505122 0)
(1.00196 0.00485516 0)
(1.00264 0.00463459 0)
(1.00214 0.00537941 0)
(1.00293 0.00557487 0)
(1.00424 0.00484377 0)
(1.00491 0.00430481 0)
(1.00457 0.00444081 0)
(1.00439 0.00463211 0)
(1.00441 0.00447649 0)
(1.00024 0.00087706 0)
(1.00039 0.000533942 0)
(1.00038 0.000137774 0)
(0.999684 0.00177149 0)
(1.00092 0.0023136 0)
(1.00077 0.000956028 0)
(1.00031 0.00147197 0)
(1.00037 0.00230453 0)
(1.00083 0.0022337 0)
(0.99981 0.00334862 0)
(1.00041 0.00481712 0)
(1.00195 0.00478222 0)
(1.00277 0.00451878 0)
(1.00237 0.00508315 0)
(1.00294 0.00538162 0)
(1.00409 0.00486463 0)
(1.0049 0.00432383 0)
(1.00474 0.00432276 0)
(1.00452 0.00452616 0)
(1.00443 0.00446307 0)
(1.00022 0.000781244 0)
(1.00029 0.000615758 0)
(1.00042 0.000264251 0)
(0.999828 0.00153086 0)
(1.00086 0.00224542 0)
(1.0007 0.00127648 0)
(1.00044 0.00159667 0)
(1.00048 0.00232799 0)
(1.00098 0.00238447 0)
(1.00016 0.00331291 0)
(1.00065 0.00460414 0)
(1.00196 0.00469903 0)
(1.00287 0.00442653 0)
(1.00259 0.0048186 0)
(1.00299 0.00516524 0)
(1.00397 0.00483883 0)
(1.00486 0.00434557 0)
(1.00488 0.00423325 0)
(1.00468 0.00440211 0)
(1.00448 0.00442658 0)
(1.00021 0.000703287 0)
(1.00021 0.000658405 0)
(1.00044 0.000410802 0)
(0.999962 0.00134276 0)
(1.00084 0.00212153 0)
(1.00066 0.0015469 0)
(1.00055 0.00176253 0)
(1.00059 0.00236477 0)
(1.00113 0.00248846 0)
(1.00048 0.00327654 0)
(1.00088 0.00441023 0)
(1.00199 0.00460075 0)
(1.00294 0.00435383 0)
(1.00279 0.00459514 0)
(1.00309 0.00493677 0)
(1.00389 0.00476896 0)
(1.0048 0.00435863 0)
(1.00498 0.00417888 0)
(1.00484 0.00426879 0)
(1.00456 0.00436681 0)
(1.0002 0.000642684 0)
(1.00014 0.000675297 0)
(1.00045 0.000552363 0)
(1.00008 0.00123719 0)
(1.00086 0.00196718 0)
(1.00064 0.00173157 0)
(1.00064 0.00194035 0)
(1.00069 0.00242452 0)
(1.00127 0.00256991 0)
(1.00078 0.00322654 0)
(1.00112 0.00423143 0)
(1.00204 0.00449507 0)
(1.00299 0.00429056 0)
(1.00297 0.00441466 0)
(1.00322 0.00470963 0)
(1.00386 0.00465583 0)
(1.00475 0.00433808 0)
(1.00504 0.00414332 0)
(1.005 0.00414403 0)
(1.00467 0.00427566 0)
(1.00019 0.000595053 0)
(1.00008 0.000681971 0)
(1.00046 0.000675302 0)
(1.00017 0.00120108 0)
(1.0009 0.00182579 0)
(1.00066 0.00182706 0)
(1.00073 0.00210478 0)
(1.00078 0.00250747 0)
(1.0014 0.00264156 0)
(1.00105 0.0031758 0)
(1.00136 0.00405143 0)
(1.0021 0.00437913 0)
(1.00303 0.00423151 0)
(1.00311 0.00427542 0)
(1.00335 0.0045035 0)
(1.00388 0.00451535 0)
(1.00471 0.00427733 0)
(1.00507 0.00410174 0)
(1.00514 0.0040372 0)
(1.0048 0.0041449 0)
(1.00018 0.000558033 0)
(1.00004 0.000683837 0)
(1.00047 0.000775655 0)
(1.00025 0.00120903 0)
(1.00095 0.00171686 0)
(1.00071 0.0018556 0)
(1.00082 0.00223221 0)
(1.00086 0.00259998 0)
(1.00151 0.00271046 0)
(1.00129 0.00313319 0)
(1.00159 0.00387045 0)
(1.0022 0.00423803 0)
(1.00306 0.00416693 0)
(1.00323 0.00416535 0)
(1.00348 0.00432568 0)
(1.00391 0.00437199 0)
(1.0047 0.00419183 0)
(1.00509 0.00404329 0)
(1.00524 0.00395431 0)
(1.00496 0.00400236 0)
(1.00017 0.000531225 0)
(1.00001 0.000686288 0)
(1.00048 0.000848143 0)
(1.00031 0.00124173 0)
(1.001 0.00165494 0)
(1.00078 0.00184402 0)
(1.00093 0.00229539 0)
(1.00094 0.00268357 0)
(1.0016 0.00278772 0)
(1.00149 0.00310275 0)
(1.00182 0.00370922 0)
(1.00231 0.00407626 0)
(1.00311 0.00408047 0)
(1.00332 0.00407254 0)
(1.0036 0.00417399 0)
(1.00397 0.00423221 0)
(1.0047 0.00409047 0)
(1.00511 0.00395991 0)
(1.00531 0.00387686 0)
(1.0051 0.0038694 0)
(1.00017 0.000507265 0)
(0.999992 0.000700279 0)
(1.0005 0.000901187 0)
(1.00037 0.00127877 0)
(1.00105 0.0016398 0)
(1.00086 0.00182427 0)
(1.00105 0.00230475 0)
(1.00103 0.00273945 0)
(1.00168 0.00286505 0)
(1.00167 0.00308751 0)
(1.00203 0.00356387 0)
(1.00244 0.00391116 0)
(1.00317 0.00396596 0)
(1.00341 0.00397987 0)
(1.00371 0.00404206 0)
(1.00403 0.00409593 0)
(1.00471 0.00398568 0)
(1.00514 0.00386003 0)
(1.00538 0.00378648 0)
(1.00523 0.00375296 0)
(1.00016 0.000486714 0)
(0.999978 0.00072167 0)
(1.00052 0.000943297 0)
(1.00043 0.00130775 0)
(1.00109 0.00165431 0)
(1.00094 0.00181591 0)
(1.00119 0.00227921 0)
(1.00114 0.00275771 0)
(1.00176 0.00292504 0)
(1.00181 0.00309281 0)
(1.00222 0.00344082 0)
(1.00257 0.00375233 0)
(1.00325 0.00383143 0)
(1.0035 0.00386727 0)
(1.00382 0.00391755 0)
(1.0041 0.00396448 0)
(1.00473 0.00388267 0)
(1.00517 0.00375803 0)
(1.00543 0.00367994 0)
(1.00533 0.00364771 0)
(1.00016 0.000471668 0)
(0.999968 0.000741627 0)
(1.00055 0.000976824 0)
(1.00048 0.00132361 0)
(1.00113 0.0016764 0)
(1.00101 0.00183455 0)
(1.00133 0.00224212 0)
(1.00126 0.00273212 0)
(1.00184 0.00296159 0)
(1.00193 0.00310518 0)
(1.00238 0.00334892 0)
(1.00271 0.00360022 0)
(1.00334 0.00369165 0)
(1.00359 0.0037393 0)
(1.00392 0.00378639 0)
(1.00418 0.00383386 0)
(1.00475 0.00377279 0)
(1.00519 0.00365877 0)
(1.00549 0.00356211 0)
(1.00541 0.00353653 0)
(1.00016 0.000458454 0)
(0.999962 0.000760873 0)
(1.00057 0.00100771 0)
(1.00053 0.00132922 0)
(1.00116 0.00169596 0)
(1.00108 0.00187458 0)
(1.00145 0.00221552 0)
(1.00139 0.00267332 0)
(1.00193 0.00296362 0)
(1.00203 0.00311195 0)
(1.0025 0.00328418 0)
(1.00283 0.00346638 0)
(1.00344 0.0035475 0)
(1.00369 0.00360689 0)
(1.00403 0.00364773 0)
(1.00426 0.00369817 0)
(1.00478 0.0036533 0)
(1.0052 0.00356064 0)
(1.00553 0.00344555 0)
(1.00548 0.00341368 0)
(1.00015 0.000447071 0)
(0.999959 0.000778377 0)
(1.00058 0.00103743 0)
(1.00058 0.00132918 0)
(1.00121 0.00170603 0)
(1.00113 0.00191872 0)
(1.00157 0.00220626 0)
(1.00153 0.00260812 0)
(1.00203 0.00292356 0)
(1.00212 0.00310153 0)
(1.0026 0.00323095 0)
(1.00293 0.00336039 0)
(1.00353 0.00340526 0)
(1.00378 0.00346601 0)
(1.00413 0.0035046 0)
(1.00435 0.00355283 0)
(1.00482 0.00352054 0)
(1.00521 0.0034508 0)
(1.00556 0.00333228 0)
(1.00555 0.00328132 0)
(1.00015 0.00043938 0)
(0.999959 0.000789361 0)
(1.0006 0.00106448 0)
(1.00062 0.00132861 0)
(1.00125 0.00170542 0)
(1.00119 0.00195567 0)
(1.00166 0.00221439 0)
(1.00166 0.00255093 0)
(1.00214 0.00285485 0)
(1.00221 0.00306704 0)
(1.00269 0.00317797 0)
(1.00301 0.00327299 0)
(1.00361 0.00328222 0)