/*--------------------------------*- C++ -*----------------------------------*\
| =========                 |                                                 |
| \\      /  F ield         | OpenFOAM: The Open Source CFD Toolbox           |
|  \\    /   O peration     | Version:  2506                                  |
|   \\  /    A nd           | Website:  www.openfoam.com                      |
|    \\/     M anipulation  |                                                 |
\*---------------------------------------------------------------------------*/
FoamFile
{
    version     2.0;
    format      ascii;
    arch        "LSB;label=32;scalar=64";
    class       volScalarField;
    location    "9.1";
    object      p;
}
// * * * * * * * * * * * * * * * * * * * * * * * * * * * * * * * * * * * * * //

dimensions      [0 2 -2 0 0 0 0];

internalField   nonuniform List<scalar> 
9600
(
-2.03471e-08
-0.00349817
-0.002419
-0.00501803
-0.00289546
-0.00183395
-0.000811548
0.000194518
-0.00285166
-0.0067896
-0.00760415
-0.00642247
-0.00658071
-0.00664461
-0.00596795
-0.0047024
-0.00284949
-0.000696273
0.00370803
0.00844025
2.94918e-06
-0.00350434
-0.00241903
-0.00501479
-0.00290369
-0.0018421
-0.000791338
0.000168124
-0.00283825
-0.00680208
-0.00760272
-0.00640069
-0.00660429
-0.00663227
-0.00596985
-0.00470862
-0.0028389
-0.000738584
0.00377608
0.00804776
5.62242e-06
-0.00351216
-0.0024151
-0.00501085
-0.0029154
-0.00185024
-0.000769028
0.000128103
-0.00280104
-0.00681906
-0.00758687
-0.00636213
-0.00664074
-0.00660641
-0.00598664
-0.00470959
-0.0028385
-0.0007891
0.00379524
0.00746058
5.41305e-06
-0.00352325
-0.0024102
-0.00500604
-0.00292924
-0.00185921
-0.000759583
6.72073e-05
-0.00276305
-0.00682775
-0.0075633
-0.00631659
-0.00669323
-0.00658611
-0.00601193
-0.00471493
-0.00284391
-0.000841302
0.00374445
0.00693694
1.90888e-06
-0.00353826
-0.00240632
-0.00499972
-0.00294536
-0.00187012
-0.000761127
-1.92827e-05
-0.00273373
-0.00683035
-0.00754043
-0.00627416
-0.00676167
-0.00657107
-0.00603518
-0.00472481
-0.00284712
-0.000905153
0.00366158
0.00645229
-4.96439e-06
-0.00355809
-0.00240275
-0.00499109
-0.00296322
-0.00188293
-0.00077194
-0.000133778
-0.00271138
-0.0068283
-0.00752094
-0.0062357
-0.00683467
-0.00655604
-0.00604943
-0.00473663
-0.00285002
-0.000976749
0.00355002
0.0059872
-1.53655e-05
-0.00358299
-0.00239774
-0.00497959
-0.00298199
-0.00189806
-0.000792877
-0.000272771
-0.00269014
-0.00682088
-0.0075047
-0.00619644
-0.00690392
-0.0065398
-0.00605207
-0.00475047
-0.00285452
-0.00105387
0.00340684
0.00553475
-2.92651e-05
-0.00361278
-0.00239023
-0.00496494
-0.00300101
-0.00191638
-0.000824175
-0.000429034
-0.00266609
-0.00680828
-0.00749123
-0.00615352
-0.00696651
-0.00652288
-0.0060436
-0.00476649
-0.00286189
-0.00113588
0.00322918
0.0050916
-4.63725e-05
-0.00364715
-0.00237996
-0.00494706
-0.00302011
-0.00193875
-0.000865071
-0.000595504
-0.00263738
-0.00679117
-0.00748058
-0.00610673
-0.00702153
-0.00650633
-0.00602609
-0.00478383
-0.00287355
-0.00122383
0.00301636
0.00465542
-6.62146e-05
-0.00368582
-0.00236725
-0.00492601
-0.00303942
-0.00196557
-0.000914454
-0.000767288
-0.00260346
-0.00677006
-0.00747317
-0.00605648
-0.00706877
-0.00649164
-0.00600147
-0.00480135
-0.00289193
-0.00131963
0.00277155
0.00422413
-8.82335e-05
-0.0037285
-0.00235285
-0.00490204
-0.00305925
-0.00199677
-0.000970958
-0.000941944
-0.00256518
-0.00674518
-0.00746952
-0.00600312
-0.00710859
-0.00647989
-0.00597135
-0.00481917
-0.00291946
-0.00142416
0.00249918
0.00379503
-0.000111877
-0.00377488
-0.0023378
-0.00487554
-0.00307993
-0.00203181
-0.001033
-0.00111877
-0.00252481
-0.00671653
-0.00747015
-0.00594723
-0.00714146
-0.00647134
-0.00593797
-0.00483837
-0.002957
-0.00153811
0.00220209
0.00336515
-0.00013668
-0.00382449
-0.00232321
-0.00484699
-0.00310184
-0.00206983
-0.00109908
-0.00129793
-0.00248524
-0.00668373
-0.00747551
-0.00588961
-0.00716774
-0.00646618
-0.00590371
-0.00485967
-0.00300455
-0.00166414
0.00188223
0.00293265
-0.000162322
-0.00387674
-0.00231007
-0.00481691
-0.00312535
-0.00210987
-0.00116815
-0.00147969
-0.00244897
-0.00664623
-0.00748615
-0.00583095
-0.00718811
-0.00646519
-0.00587038
-0.00488377
-0.00306169
-0.00180599
0.00154146
0.00249846
-0.000188644
-0.003931
-0.00229912
-0.00478569
-0.00315079
-0.00215119
-0.00123979
-0.0016639
-0.00241786
-0.0066037
-0.00750256
-0.00577215
-0.00720365
-0.00646899
-0.00583888
-0.00491289
-0.003127
-0.00196508
0.0011804
0.00206448
-0.000215634
-0.00398669
-0.0022909
-0.00475358
-0.00317845
-0.00219334
-0.00131411
-0.00184996
-0.00239344
-0.00655598
-0.0075251
-0.00571421
-0.00721524
-0.00647769
-0.00580975
-0.00495032
-0.00319884
-0.00214034
0.000797982
0.00163209
-0.000243393
-0.00404336
-0.00228577
-0.00472068
-0.00320859
-0.00223612
-0.00139149
-0.00203697
-0.00237706
-0.00650292
-0.00755384
-0.00565798
-0.00722327
-0.00649194
-0.00578273
-0.00499893
-0.00327688
-0.00232989
0.000392352
0.00120243
-0.000272104
-0.00410072
-0.00228399
-0.00468697
-0.00324151
-0.00227943
-0.00147246
-0.00222387
-0.00236998
-0.00644431
-0.00758875
-0.00560411
-0.00722785
-0.0065133
-0.00575612
-0.00506119
-0.0033627
-0.00252994
-3.86554e-05
0.000775187
-0.000301996
-0.00415857
-0.00228575
-0.00465236
-0.00327757
-0.00232318
-0.00155747
-0.00240964
-0.00237331
-0.0063801
-0.00762989
-0.0055533
-0.00722817
-0.0065435
-0.0057283
-0.00513866
-0.00345957
-0.00273503
-0.000496665
0.000347497
-0.000333326
-0.00421678
-0.00229125
-0.0046167
-0.00331715
-0.00236732
-0.00164695
-0.00259335
-0.00238805
-0.00631039
-0.00767723
-0.00550681
-0.0072226
-0.0065847
-0.00569781
-0.00523078
-0.00357288
-0.0029386
-0.00098021
-8.72846e-05
-0.000366364
-0.0042752
-0.00230077
-0.00457981
-0.0033606
-0.00241184
-0.00174134
-0.00277422
-0.00241529
-0.00623533
-0.00773046
-0.0054662
-0.00720929
-0.00663949
-0.00566403
-0.00533532
-0.0037093
-0.00313445
-0.00148436
-0.000539618
-0.000401386
-0.00433374
-0.0023146
-0.00454151
-0.00340835
-0.00245669
-0.00184101
-0.00295179
-0.00245593
-0.00615522
-0.00778879
-0.00543319
-0.00718646
-0.00670962
-0.00562895
-0.00544832
-0.00387526
-0.00332002
-0.00200116
-0.00102041
-0.000438647
-0.00439227
-0.00233312
-0.0045016
-0.00346083
-0.00250184
-0.00194631
-0.00312582
-0.00251066
-0.00607064
-0.00785075
-0.00541016
-0.00715245
-0.00679597
-0.00559537
-0.00556377
-0.00407698
-0.00349713
-0.00251773
-0.00153845
-0.000478388
-0.00445067
-0.00235678
-0.00445991
-0.00351843
-0.0025473
-0.00205763
-0.00329615
-0.00257977
-0.0059827
-0.00791447
-0.00539983
-0.00710588
-0.00689835
-0.00556579
-0.00567492
-0.00431905
-0.00367204
-0.00301782
-0.00209755
-0.000520853
-0.00450875
-0.00238611
-0.00441627
-0.00358152
-0.00259306
-0.00217523
-0.00346291
-0.00266317
-0.00589296
-0.00797762
-0.00540481
-0.00704631
-0.00701473
-0.00553869
-0.00577633
-0.00460214
-0.00385503
-0.00348608
-0.00269417
-0.000566277
-0.00456633
-0.00242167
-0.00437049
-0.00365046
-0.00263921
-0.00229911
-0.00362651
-0.00276049
-0.00580347
-0.00803788
-0.00542726
-0.00697377
-0.0071429
-0.0055434
-0.00586284
-0.00492238
-0.00405981
-0.00391099
-0.0033185
-0.000614901
-0.00462316
-0.00246409
-0.00432247
-0.00372549
-0.00268609
-0.00242898
-0.00378758
-0.00287087
-0.00571671
-0.00809359
-0.0054684
-0.00688928
-0.00728091
-0.00557421
-0.00593002
-0.00527263
-0.00430211
-0.00428682
-0.0039525
-0.000666991
-0.00467896
-0.00251402
-0.00427212
-0.00380681
-0.00273423
-0.00256404
-0.00394726
-0.00299271
-0.005635
-0.00814365
-0.00552899
-0.00679522
-0.00742454
-0.00563628
-0.00597814
-0.00564247
-0.00459598
-0.00461687
-0.00457209
-0.000722821
-0.00473352
-0.00257214
-0.00421932
-0.00389456
-0.00278432
-0.00270323
-0.00410701
-0.003124
-0.00556034
-0.00818721
-0.00560975
-0.00669442
-0.00756842
-0.00573615
-0.00601048
-0.00601719
-0.00495129
-0.00491361
-0.00515127
-0.000782687
-0.00478649
-0.00263918
-0.00416408
-0.00398853
-0.00283748
-0.00284512
-0.00426846
-0.00326323
-0.00549427
-0.00822414
-0.00571032
-0.00659032
-0.00770836
-0.00587802
-0.00603241
-0.00638116
-0.00537005
-0.00519689
-0.00566566
-0.000846924
-0.00483751
-0.00271588
-0.00410651
-0.00408825
-0.00289523
-0.00298754
-0.00443347
-0.0034093
-0.00543764
-0.00825551
-0.00582978
-0.00648624
-0.00784093
-0.00606367
-0.00605199
-0.00672039
-0.00584547
-0.00549294
-0.00610134
-0.000915859
-0.00488623
-0.00280296
-0.00404691
-0.00419318
-0.00295925
-0.00312807
-0.00460353
-0.00356158
-0.00539053
-0.00828279
-0.00596801
-0.00638571
-0.00796206
-0.00629394
-0.0060792
-0.00702151
-0.00636494
-0.00583105
-0.00646226
-0.000989851
-0.00493223
-0.00290114
-0.0039858
-0.00430235
-0.00303175
-0.00326411
-0.00477923
-0.00372048
-0.00535225
-0.0083074
-0.00612558
-0.00629225
-0.00806697
-0.00656766
-0.00612444
-0.00727434
-0.00691022
-0.00623183
-0.00676376
-0.00106932
-0.004975
-0.00301109
-0.00392382
-0.00441436
-0.00311528
-0.00339318
-0.00496033
-0.00388754
-0.0053219
-0.0083309
-0.0063031
-0.00620883
-0.00815188
-0.00688067
-0.00619077
-0.00747601
-0.00745859
-0.00670066
-0.00704014
-0.00115471
-0.00501405
-0.0031332
-0.00386202
-0.00452754
-0.00321225
-0.00351345
-0.00514779
-0.00406513
-0.00529845
-0.00835316
-0.0065017
-0.00614045
-0.00821243
-0.00722668
-0.00631484
-0.00763072
-0.00798438
-0.0072306
-0.00732726
-0.0012465
-0.00504887
-0.00326774
-0.00380186
-0.00463954
-0.00332518
-0.0036242
-0.00533652
-0.00425593
-0.00528173
-0.00837261
-0.00672339
-0.00609389
-0.00824355
-0.00759847
-0.00650163
-0.00774671
-0.00846516
-0.00781112
-0.00767627
-0.00134516
-0.00507896
-0.00341494
-0.0037452
-0.00474734
-0.00345655
-0.00372574
-0.00552302
-0.00446307
-0.00527304
-0.00838666
-0.0069687
-0.00607548
-0.00824293
-0.00798656
-0.00675636
-0.00783429
-0.00888442
-0.00842106
-0.00809316
-0.00145119
-0.00510394
-0.0035746
-0.00369433
-0.00484812
-0.00360669
-0.00381926
-0.00570321
-0.00468938
-0.00527484
-0.0083913
-0.00723627
-0.00609382
-0.00821036
-0.00837724
-0.00708287
-0.00790816
-0.00923358
-0.00903288
-0.00857882
-0.00156514
-0.00512351
-0.00374599
-0.00365194
-0.00493907
-0.00377934
-0.00390787
-0.0058719
-0.00493638
-0.00529165
-0.0083822
-0.00752279
-0.00615928
-0.00814936
-0.00875303
-0.00748048
-0.00800343
-0.009511
-0.00961934
-0.00911811
-0.00168749
-0.00513748
-0.00392796
-0.00362145
-0.0050172
-0.00397329
-0.00399605
-0.00602379
-0.00520402
-0.00532959
-0.00835661
-0.00782222
-0.00628154
-0.00806923
-0.00909466
-0.00794351
-0.00814975
-0.00971895
-0.0101581
-0.00969361
-0.0018187
-0.0051458
-0.00411883
-0.00360662
-0.00508032
-0.00418886
-0.00408916
-0.00615414
-0.0054896
-0.00539589
-0.00831415
-0.00812603
-0.00646874
-0.00798522
-0.00938325
-0.00845629
-0.00836159
-0.00985194
-0.0106301
-0.0102859
-0.00195929
-0.00514854
-0.00431631
-0.00361124
-0.00512739
-0.00442401
-0.00419351
-0.00625904
-0.00578826
-0.00549856
-0.00825742
-0.00842383
-0.00672454
-0.00791666
-0.00960633
-0.00899437
-0.00865418
-0.00997189
-0.0110207
-0.0108721
-0.00210975
-0.00514591
-0.00451792
-0.00363933
-0.00515819
-0.00467511
-0.00431602
-0.00633841
-0.00609262
-0.00564392
-0.00819261
-0.00870488
-0.00704673
-0.00788423
-0.00976001
-0.00952805
-0.00903313
-0.0100963
-0.0113233
-0.011425
-0.0022705
-0.00513854
-0.00472043
-0.00369485
-0.00517332
-0.0049233
-0.00446342
-0.00639484
-0.00639261
-0.00583605
-0.00812932
-0.00895916
-0.00742686
-0.00790856
-0.00985022
-0.0100249
-0.0094899
-0.0102604
-0.0115485
-0.0119137
-0.00244187
-0.00512749
-0.00491963
-0.00378103
-0.00517393
-0.00516762
-0.00464182
-0.00643391
-0.00667782
-0.00607541
-0.00808067
-0.00917867
-0.00784933
-0.00800454
-0.009894
-0.0104607
-0.0100002
-0.0104922
-0.0117281
-0.0123197
-0.0026239
-0.00511407
-0.00511275
-0.00389999
-0.00515869
-0.0054018
-0.00485385
-0.00646685
-0.00693981
-0.00635706
-0.00806167
-0.00935951
-0.0082925
-0.00817888
-0.00991676
-0.0108245
-0.0105337
-0.010801
-0.0118994
-0.0126489
-0.00281616
-0.00510025
-0.00529117
-0.00405269
-0.00515084
-0.00561839
-0.00509875
-0.00650809
-0.00717449
-0.00667032
-0.00808474
-0.00950353
-0.00873347
-0.00843053
-0.00994738
-0.0111142
-0.0110596
-0.0111798
-0.0120917
-0.0129182
-0.00301769
-0.00508895
-0.00545479
-0.00423864
-0.00515122
-0.00581228
-0.00537136
-0.00656935
-0.0073819
-0.00700156
-0.00815686
-0.00961831
-0.00915373
-0.00875056
-0.0100134
-0.011339
-0.0115498
-0.0116118
-0.0123257
-0.0131502
-0.00322734
-0.00508515
-0.00560195
-0.00445419
-0.0051703
-0.00597423
-0.00566002
-0.00665806
-0.00756532
-0.00733904
-0.00827862
-0.009716
-0.00954196
-0.00912239
-0.0101327
-0.0115192
-0.0119871
-0.0120729
-0.0126117
-0.0133687
-0.00344395
-0.00509158
-0.00573159
-0.00469282
-0.005218
-0.00611837
-0.00595303
-0.00677801
-0.00773141
-0.00767315
-0.00844648
-0.00981131
-0.00989259
-0.00952511
-0.010313
-0.0116811
-0.012368
-0.012536
-0.0129474
-0.013598
-0.00366622
-0.00511094
-0.00584449
-0.00494669
-0.00530039
-0.00624819
-0.00624154
-0.00692811
-0.00788812
-0.00799695
-0.00865513
-0.00991725
-0.0102056
-0.00993921
-0.0105517
-0.0118464
-0.0126996
-0.0129814
-0.0133182
-0.0138565
-0.00389249
-0.00514564
-0.00594338
-0.00520729
-0.00541986
-0.00637467
-0.00652236
-0.0071047
-0.00804149
-0.00830661
-0.00889725
-0.010044
-0.010487
-0.0103475
-0.0108377
-0.0120301
-0.0129951
-0.0134013
-0.0137058
-0.0141473
-0.00412105
-0.00519735
-0.00602299
-0.0054673
-0.00557538
-0.00650577
-0.00679458
-0.00730493
-0.00819613
-0.00859896
-0.00916422
-0.0101995
-0.0107453
-0.0107382
-0.0111578
-0.0122396
-0.0132669
-0.0137944
-0.014097
-0.0144611
-0.00435013
-0.00526749
-0.00610587
-0.00572266
-0.00576329
-0.00664791
-0.00705895
-0.00752534
-0.00835565
-0.00887009
-0.0094459
-0.0103869
-0.0109919
-0.0111085
-0.0114978
-0.0124753
-0.0135228
-0.0141601
-0.0144866
-0.0147883
-0.00457909
-0.00535513
-0.00618625
-0.00596983
-0.0059789
-0.00680778
-0.00732083
-0.00776456
-0.00852459
-0.00912017
-0.00973169
-0.0106042
-0.0112393
-0.0114606
-0.0118442
-0.0127327
-0.0137691
-0.0144974
-0.0148726
-0.0151253
-0.00480782
-0.00546168
-0.0062668
-0.0062063
-0.00621517
-0.0069865
-0.00758157
-0.0080201
-0.00870515
-0.00935177
-0.0100135
-0.0108468
-0.0114967
-0.0117988
-0.0121905
-0.0130075
-0.0140134
-0.0148056
-0.0152474
-0.0154729
-0.00503357
-0.00558964
-0.00635641
-0.00643362
-0.00646909
-0.00718182
-0.0078407
-0.00828903
-0.00889838
-0.00956727
-0.0102839
-0.0111066
-0.0117676
-0.0121309
-0.0125351
-0.0132952
-0.0142611
-0.0150865
-0.0155996
-0.0158294
-0.00525281
-0.00571477
-0.00646259
-0.00667507
-0.00674308
-0.00739122
-0.00809616
-0.00856992
-0.00911118
-0.00977233
-0.0105365
-0.0113727
-0.0120496
-0.012463
-0.0128781
-0.0135893
-0.0145143
-0.0153489
-0.0159201
-0.0161829
-0.0054725
-0.00586676
-0.00658152
-0.00690763
-0.00702077
-0.0076088
-0.00834236
-0.00885762
-0.00935072
-0.00997873
-0.0107713
-0.0116364
-0.01234
-0.0127983
-0.0132254
-0.0138891
-0.0147719
-0.0156038
-0.0162087
-0.0165174
-0.00569378
-0.00602941
-0.0067118
-0.00713481
-0.00730389
-0.0078368
-0.00858194
-0.00915263
-0.00961991
-0.0101992
-0.0109934
-0.0118874
-0.0126299
-0.0131334
-0.0135785
-0.0141982
-0.0150305
-0.0158548
-0.0164756
-0.0168227
-0.00591621
-0.00620546
-0.00685337
-0.00735765
-0.00759179
-0.00807906
-0.00881597
-0.00944505
-0.00991304
-0.0104406
-0.0112084
-0.0121212
-0.0129099
-0.0134634
-0.0139325
-0.0145209
-0.0152933
-0.0161001
-0.0167311
-0.0171
-0.00614219
-0.00639607
-0.00700817
-0.00757472
-0.00787986
-0.00833506
-0.00904616
-0.00972374
-0.0102211
-0.0107092
-0.0114287
-0.01234
-0.0131734
-0.0137837
-0.0142824
-0.0148552
-0.0155692
-0.0163402
-0.0169775
-0.0173579
-0.00637141
-0.00660082
-0.0071739
-0.00778677
-0.00816601
-0.00860528
-0.00927885
-0.00998745
-0.0105322
-0.0110035
-0.0116659
-0.012549
-0.0134149
-0.0140872
-0.014623
-0.0151912
-0.015861
-0.0165827
-0.0172149
-0.0176039
-0.00660103
-0.00680953
-0.00735808
-0.00800202
-0.00844968
-0.00888681
-0.0095176
-0.0102379
-0.0108319
-0.0113133
-0.0119263
-0.0127591
-0.0136352
-0.0143658
-0.0149489
-0.0155206
-0.0161616
-0.0168351
-0.0174462
-0.0178414
-0.00683389
-0.00703284
-0.00755517
-0.00821672
-0.00872734
-0.00917574
-0.00976585
-0.0104793
-0.0111148
-0.0116255
-0.0122065
-0.0129812
-0.0138419
-0.0146148
-0.0152519
-0.0158392
-0.0164619
-0.0170974
-0.0176759
-0.0180703
-0.00706989
-0.00726145
-0.00776649
-0.00843346
-0.00899551
-0.00946644
-0.0100256
-0.010719
-0.0113826
-0.011931
-0.0124999
-0.0132199
-0.0140451
-0.0148375
-0.0155224
-0.0161378
-0.0167536
-0.0173623
-0.0179071
-0.0182906
-0.0073101
-0.00749916
-0.00798755
-0.0086535
-0.00925793
-0.00975913
-0.010297
-0.0109593
-0.0116332
-0.012217
-0.0127923
-0.0134699
-0.0142536
-0.0150442
-0.0157608
-0.0164056
-0.0170251
-0.0176188
-0.0181376
-0.0185031
-0.00755288
-0.00773754
-0.00822005
-0.00888328
-0.00951433
-0.0100449
-0.0105733
-0.0112074
-0.0118763
-0.0124851
-0.0130707
-0.0137194
-0.014463
-0.015242
-0.0159768
-0.0166438
-0.0172714
-0.0178576
-0.0183599
-0.0187076
-0.00780048
-0.00798171
-0.00845912
-0.00911732
-0.00976587
-0.0103234
-0.0108501
-0.0114591
-0.0121164
-0.0127417
-0.0133364
-0.0139615
-0.0146614
-0.0154147
-0.0161605
-0.0168501
-0.017493
-0.0180815
-0.018575
-0.0189102
-0.0080528
-0.00823463
-0.00870303
-0.00935569
-0.0100146
-0.0105962
-0.0111257
-0.0117098
-0.0123457
-0.0129777
-0.0135864
-0.0142015
-0.014861
-0.015568
-0.0163008
-0.0170035
-0.017665
-0.0182694
-0.0187686
-0.0191034
-0.00830578
-0.00848246
-0.00895237
-0.00960368
-0.0102632
-0.0108597
-0.011399
-0.0119661
-0.0125749
-0.0131961
-0.0138046
-0.014418
-0.0150542
-0.0157158
-0.0164138
-0.0171064
-0.0177657
-0.0183801
-0.0189002
-0.0192573
-0.00856259
-0.00873663
-0.00920207
-0.00985125
-0.0105103
-0.0111159
-0.0116656
-0.0122218
-0.0128063
-0.0134107
-0.0140032
-0.0145971
-0.0152118
-0.0158393
-0.0164985
-0.0171635
-0.0178049
-0.0184081
-0.0189303
-0.0193042
-0.00882279
-0.00899688
-0.00945412
-0.0100967
-0.0107525
-0.0113622
-0.0119201
-0.0124718
-0.0130372
-0.0136206
-0.0141883
-0.0147463
-0.0153261
-0.0159205
-0.0165461
-0.0171872
-0.0178136
-0.0183972
-0.0188952
-0.0192323
-0.00908083
-0.00925568
-0.00971168
-0.0103469
-0.010993
-0.0115974
-0.0121584
-0.0127179
-0.0132877
-0.0138431
-0.014356
-0.0148379
-0.0153256
-0.0158348
-0.0163937
-0.0170017
-0.0176356
-0.0182891
-0.018929
-0.0194571
-0.00933467
-0.00951488
-0.00997366
-0.0105999
-0.0112348
-0.0118324
-0.0123794
-0.0129418
-0.0135743
-0.0142078
-0.0147212
-0.0151152
-0.0154821
-0.0158722
-0.0162936
-0.0166953
-0.0170034
-0.0171849
-0.0172944
-0.0174382
-0.00959731
-0.00975619
-0.0101985
-0.0108089
-0.0114546
-0.0120734
-0.0125927
-0.0130571
-0.0135573
-0.0140918
-0.0146029
-0.0150763
-0.0155372
-0.0159685
-0.0163559
-0.0167146
-0.0170631
-0.0174001
-0.0177411
-0.0181275
-0.00991393
-0.0101044
-0.0104551
-0.010954
-0.0115058
-0.012057
-0.0125773
-0.013112
-0.0136823
-0.0142681
-0.0148449
-0.0153635
-0.0158155
-0.0162151
-0.0165358
-0.0167879
-0.0169757
-0.0170975
-0.0172051
-0.0173901
-0.0100733
-0.0101843
-0.0105506
-0.0110697
-0.0116062
-0.0121481
-0.0126808
-0.0132194
-0.013793
-0.0143618
-0.0148762
-0.0153329
-0.0157426
-0.0161639
-0.0166389
-0.0171834
-0.0178257
-0.0185325
-0.0192482
-0.0198821
-0.0103325
-0.0104843
-0.0107735
-0.0111884
-0.0116586
-0.0121759
-0.0127101
-0.0132725
-0.0138758
-0.0144813
-0.0150314
-0.0155148
-0.0159464
-0.0163121
-0.0166171
-0.0168406
-0.0169943
-0.0171169
-0.0172695
-0.0175403
-0.0104832
-0.0106164
-0.0108752
-0.0112447
-0.0116798
-0.0121882
-0.0127202
-0.013298
-0.013929
-0.0145626
-0.0151354
-0.015607
-0.0160057
-0.0163599
-0.0166923
-0.0170236
-0.0173637
-0.017716
-0.0180831
-0.0185102
0.0192399
0.00771918
-0.00445568
-0.0125006
-0.0155613
-0.0159121
-0.0162973
-0.0174045
-0.0187229
-0.0196214
-0.0199414
-0.0200723
-0.0203822
-0.0208808
-0.0215206
-0.0222555
-0.0228985
-0.0234028
-0.0239562
-0.0246282
-0.0252967
-0.0258876
-0.0264224
-0.02698
-0.0276564
-0.0284225
-0.0291311
-0.0297968
-0.0305988
-0.031593
-0.0326442
-0.0335835
-0.0343103
-0.0348997
-0.0355084
-0.0361997
-0.0369343
-0.0376735
-0.0384237
-0.0392233
-0.0400719
-0.040958
-0.0418929
-0.0428573
-0.0437705
-0.0446068
-0.0454252
-0.0462628
-0.0471373
-0.0480529
-0.049006
-0.0499874
-0.0509755
-0.051952
-0.0529482
-0.0539666
-0.0550245
-0.0560934
-0.0571772
-0.0582976
-0.0594575
-0.0605838
-0.0616781
-0.0628215
-0.0639977
-0.0651821
-0.066399
-0.0676609
-0.0689296
-0.0702137
-0.0715288
-0.0728648
-0.0742271
-0.0755876
-0.0769693
-0.0783863
-0.0798986
-0.0814321
-0.0829639
-0.0844975
-0.0860363
-0.0876244
-0.0892445
-0.0909238
-0.0926131
-0.0943488
-0.0960841
-0.0978693
-0.0996635
-0.10154
-0.103413
-0.105319
-0.107304
-0.109261
-0.111281
-0.113271
-0.115331
-0.117313
-0.119301
-0.12136
0.0174988
0.00750597
-0.00438274
-0.0123562
-0.0154639
-0.0158614
-0.0162664
-0.0173861
-0.018712
-0.0196146
-0.0199365
-0.0200676
-0.0203775
-0.0208761
-0.0215162
-0.0222519
-0.0228956
-0.0233998
-0.0239531
-0.0246253
-0.0252941
-0.0258852
-0.02642
-0.0269775
-0.0276539
-0.0284203
-0.0291292
-0.0297949
-0.0305968
-0.0315911
-0.0326426
-0.0335822
-0.0343092
-0.0348985
-0.0355072
-0.0361986
-0.0369333
-0.0376727
-0.0384228
-0.0392225
-0.0400711
-0.0409573
-0.0418922
-0.0428567
-0.04377
-0.0446063
-0.0454247
-0.0462624
-0.0471368
-0.0480525
-0.0490056
-0.049987
-0.0509751
-0.0519516
-0.0529479
-0.0539662
-0.0550242
-0.0560931
-0.0571769
-0.0582973
-0.0594572
-0.0605835
-0.0616778
-0.0628213
-0.0639975
-0.0651819
-0.0663988
-0.0676606
-0.0689294
-0.0702135
-0.0715286
-0.0728646
-0.0742269
-0.0755874
-0.0769691
-0.0783861
-0.0798984
-0.081432
-0.0829638
-0.0844973
-0.0860361
-0.0876243
-0.0892444
-0.0909236
-0.092613
-0.0943487
-0.096084
-0.0978692
-0.0996634
-0.10154
-0.103413
-0.105319
-0.107304
-0.109261
-0.11128
-0.113271
-0.115331
-0.117312
-0.119301
-0.12136
0.0161773
0.00736651
-0.00421349
-0.012097
-0.0153095
-0.0158079
-0.0162383
-0.0173605
-0.0186911
-0.0195996
-0.0199267
-0.0200615
-0.0203733
-0.0208722
-0.021512
-0.022248
-0.0228926
-0.0233973
-0.0239507
-0.024623
-0.0252919
-0.025883
-0.026418
-0.0269755
-0.0276519
-0.0284184
-0.0291274
-0.029793
-0.0305949
-0.0315895
-0.0326414
-0.0335813
-0.0343083
-0.0348974
-0.035506
-0.0361975
-0.0369323
-0.0376718
-0.038422
-0.0392218
-0.0400704
-0.0409566
-0.0418917
-0.0428563
-0.0437696
-0.0446059
-0.0454243
-0.0462619
-0.0471364
-0.0480521
-0.0490052
-0.0499867
-0.0509748
-0.0519513
-0.0529476
-0.0539659
-0.0550239
-0.0560928
-0.0571766
-0.058297
-0.059457
-0.0605833
-0.0616776
-0.062821
-0.0639973
-0.0651817
-0.0663986
-0.0676605
-0.0689292
-0.0702133
-0.0715284
-0.0728644
-0.0742268
-0.0755872
-0.076969
-0.0783859
-0.0798982
-0.0814318
-0.0829637
-0.0844972
-0.086036
-0.0876242
-0.0892443
-0.0909235
-0.0926129
-0.0943486
-0.0960839
-0.0978691
-0.0996633
-0.10154
-0.103413
-0.105319
-0.107304
-0.109261
-0.11128
-0.113271
-0.115331
-0.117312
-0.119301
-0.12136
0.0149639
0.00718726
-0.00402355
-0.01179
-0.0151121
-0.0157401
-0.0162006
-0.0173206
-0.0186524
-0.0195676
-0.0199053
-0.0200505
-0.0203685
-0.0208686
-0.0215069
-0.022242
-0.0228876
-0.0233945
-0.0239491
-0.0246212
-0.0252894
-0.0258806
-0.0264162
-0.026974
-0.0276501
-0.0284164
-0.0291253
-0.029791
-0.0305931
-0.0315879
-0.0326401
-0.0335803
-0.0343074
-0.0348963
-0.0355047
-0.0361963
-0.0369312
-0.0376709
-0.0384211
-0.0392209
-0.0400695
-0.0409558
-0.041891
-0.0428558
-0.0437692
-0.0446055
-0.0454238
-0.0462615
-0.047136
-0.0480517
-0.0490048
-0.0499863
-0.0509745
-0.051951
-0.0529473
-0.0539656
-0.0550237
-0.0560925
-0.0571763
-0.0582968
-0.0594568
-0.0605831
-0.0616774
-0.0628208
-0.0639971
-0.0651815
-0.0663984
-0.0676603
-0.068929
-0.0702131
-0.0715283
-0.0728642
-0.0742266
-0.0755871
-0.0769688
-0.0783857
-0.0798981
-0.0814317
-0.0829635
-0.0844971
-0.0860359
-0.0876241
-0.0892441
-0.0909234
-0.0926128
-0.0943485
-0.0960838
-0.097869
-0.0996632
-0.10154
-0.103413
-0.105319
-0.107303
-0.109261
-0.11128
-0.11327
-0.115331
-0.117312
-0.119301
-0.12136
0.0137465
0.00693534
-0.00384016
-0.0114714
-0.0148979
-0.0156658
-0.0161597
-0.0172708
-0.0185968
-0.0195169
-0.0198694
-0.020032
-0.0203616
-0.0208652
-0.0215011
-0.0222332
-0.0228795
-0.0233902
-0.0239478
-0.0246197
-0.0252864
-0.0258775
-0.0264146
-0.0269735
-0.0276491
-0.0284142
-0.0291227
-0.0297888
-0.0305912
-0.031586
-0.0326383
-0.0335789
-0.0343063
-0.0348951
-0.0355033
-0.0361947
-0.0369298
-0.0376697
-0.03842
-0.0392197
-0.0400684
-0.0409547
-0.0418902
-0.0428553
-0.0437687
-0.044605
-0.0454233
-0.0462609
-0.0471354
-0.0480512
-0.0490044
-0.049986
-0.0509742
-0.0519507
-0.0529469
-0.0539653
-0.0550233
-0.0560922
-0.057176
-0.0582965
-0.0594565
-0.060583
-0.0616771
-0.0628205
-0.0639968
-0.0651813
-0.0663981
-0.06766
-0.0689288
-0.0702129
-0.0715281
-0.072864
-0.0742265
-0.0755869
-0.0769686
-0.0783855
-0.0798979
-0.0814316
-0.0829634
-0.0844969
-0.0860357
-0.0876239
-0.089244
-0.0909233
-0.0926127
-0.0943484
-0.0960837
-0.0978689
-0.0996631
-0.10154
-0.103412
-0.105319
-0.107303
-0.109261
-0.11128
-0.11327
-0.115331
-0.117312
-0.119301
-0.121361
0.0125315
0.00662359
-0.00366447
-0.0111504
-0.0146745
-0.0155878
-0.0161204
-0.0172191
-0.0185332
-0.0194542
-0.0198225
-0.0200066
-0.0203521
-0.0208614
-0.0214946
-0.0222218
-0.0228683
-0.0233843
-0.0239463
-0.0246182
-0.0252827
-0.0258736
-0.0264132
-0.0269743
-0.0276491
-0.0284119
-0.0291198
-0.0297869
-0.03059
-0.0315842
-0.0326357
-0.0335765
-0.0343045
-0.0348936
-0.0355015
-0.0361927
-0.0369279
-0.0376682
-0.0384187
-0.0392182
-0.0400667
-0.0409533
-0.0418892
-0.0428545
-0.043768
-0.0446043
-0.0454226
-0.0462602
-0.0471348
-0.0480506
-0.0490039
-0.0499855
-0.0509737
-0.0519502
-0.0529465
-0.0539649
-0.055023
-0.0560919
-0.0571757
-0.0582962
-0.0594563
-0.0605827
-0.0616769
-0.0628203
-0.0639966
-0.065181
-0.0663979
-0.0676598
-0.0689286
-0.0702127
-0.0715279
-0.0728638
-0.0742263
-0.0755867
-0.0769684
-0.0783853
-0.0798977
-0.0814315
-0.0829633
-0.0844968
-0.0860356
-0.0876238
-0.0892438
-0.0909232
-0.0926125
-0.0943483
-0.0960835
-0.0978688
-0.099663
-0.101539
-0.103412
-0.105319
-0.107303
-0.109261
-0.11128
-0.11327
-0.115331
-0.117312
-0.119301
-0.121362
0.0113335
0.00626296
-0.00350049
-0.0108314
-0.0144427
-0.0155052
-0.0160833
-0.0171681
-0.0184663
-0.0193855
-0.019769
-0.0199764
-0.0203402
-0.0208568
-0.0214873
-0.0222088
-0.022855
-0.0233771
-0.0239443
-0.0246159
-0.0252779
-0.0258688
-0.026412
-0.0269762
-0.02765
-0.0284096
-0.0291167
-0.0297858
-0.0305899
-0.0315828
-0.0326326
-0.0335729
-0.0343017
-0.0348914
-0.0354993
-0.0361901
-0.0369255
-0.0376665
-0.0384173
-0.0392164
-0.0400645
-0.0409514
-0.0418878
-0.0428533
-0.0437669
-0.0446033
-0.0454217
-0.0462594
-0.047134
-0.0480499
-0.0490033
-0.049985
-0.0509732
-0.0519497
-0.052946
-0.0539644
-0.0550225
-0.0560915
-0.0571753
-0.0582958
-0.0594559
-0.0605825
-0.0616766
-0.06282
-0.0639963
-0.0651807
-0.0663976
-0.0676596
-0.0689284
-0.0702125
-0.0715276
-0.0728636
-0.0742261
-0.0755865
-0.0769682
-0.078385
-0.0798975
-0.0814313
-0.0829631
-0.0844966
-0.0860354
-0.0876236
-0.0892437
-0.090923
-0.0926124
-0.0943482
-0.0960834
-0.0978687
-0.0996629
-0.101539
-0.103412
-0.105319
-0.107303
-0.109261
-0.11128
-0.11327
-0.115331
-0.117313
-0.119301
-0.121363
0.0101657
0.00585805
-0.0033559
-0.0105196
-0.0142034
-0.0154158
-0.0160471
-0.0171182
-0.0183974
-0.0193127
-0.019711
-0.0199428
-0.0203263
-0.0208513
-0.0214794
-0.0221948
-0.0228407
-0.0233692
-0.0239416
-0.0246128
-0.0252719
-0.0258632
-0.0264109
-0.026979
-0.0276515
-0.0284072
-0.0291135
-0.0297855
-0.0305914
-0.0315827
-0.0326297
-0.0335687
-0.0342978
-0.0348883
-0.0354961
-0.0361865
-0.0369224
-0.0376646
-0.038416
-0.0392145
-0.0400619
-0.0409491
-0.041886
-0.0428517
-0.0437653
-0.0446019
-0.0454206
-0.0462582
-0.047133
-0.0480491
-0.0490026
-0.0499843
-0.0509725
-0.0519491
-0.0529454
-0.0539637
-0.0550218
-0.0560909
-0.0571749
-0.0582954
-0.0594555
-0.0605822
-0.0616763
-0.0628196
-0.063996
-0.0651805
-0.0663974
-0.0676593
-0.0689281
-0.0702123
-0.0715274
-0.0728634
-0.0742258
-0.0755863
-0.0769679
-0.0783847
-0.0798972
-0.0814312
-0.0829629
-0.0844964
-0.0860352
-0.0876234
-0.0892435
-0.0909228
-0.0926122
-0.094348
-0.0960833
-0.0978685
-0.0996627
-0.101539
-0.103412
-0.105318
-0.107303
-0.109261
-0.11128
-0.11327
-0.11533
-0.117313
-0.119302
-0.121364
0.00903794
0.00540934
-0.0032392
-0.0102193
-0.013956
-0.015316
-0.0160102
-0.0170696
-0.0183273
-0.0192369
-0.0196494
-0.0199061
-0.0203106
-0.0208447
-0.0214709
-0.0221803
-0.0228259
-0.0233609
-0.0239385
-0.0246089
-0.0252651
-0.025857
-0.0264098
-0.0269823
-0.0276535
-0.0284046
-0.0291102
-0.0297858
-0.0305943
-0.0315841
-0.0326277
-0.0335645
-0.0342935
-0.0348842
-0.0354917
-0.0361815
-0.0369181
-0.0376624
-0.0384148
-0.0392127
-0.0400593
-0.0409466
-0.041884
-0.0428496
-0.0437631
-0.0446
-0.045419
-0.0462568
-0.0471317
-0.048048
-0.0490017
-0.0499834
-0.0509717
-0.0519482
-0.0529447
-0.0539629
-0.055021
-0.0560902
-0.0571743
-0.0582948
-0.059455
-0.0605818
-0.061676
-0.0628192
-0.0639955
-0.0651801
-0.0663971
-0.067659
-0.0689278
-0.070212
-0.0715272
-0.0728631
-0.0742256
-0.0755861
-0.0769677
-0.0783844
-0.079897
-0.0814311
-0.0829627
-0.0844962
-0.086035
-0.0876232
-0.0892432
-0.0909226
-0.092612
-0.0943478
-0.0960831
-0.0978683
-0.0996626
-0.101539
-0.103412
-0.105318
-0.107303
-0.109261
-0.11128
-0.11327
-0.11533
-0.117313
-0.119302
-0.121366
0.00795282
0.00491588
-0.00315507
-0.00993118
-0.0136985
-0.0152028
-0.0159715
-0.0170238
-0.0182575
-0.0191587
-0.0195845
-0.0198666
-0.020293
-0.0208374
-0.0214619
-0.0221653
-0.0228105
-0.0233522
-0.0239351
-0.0246046
-0.0252577
-0.0258504
-0.0264086
-0.0269859
-0.0276558
-0.0284022
-0.0291069
-0.0297867
-0.0305985
-0.0315871
-0.0326271
-0.0335614
-0.0342895
-0.0348798
-0.0354863
-0.0361751
-0.0369125
-0.0376594
-0.0384137
-0.0392111
-0.0400568
-0.0409444
-0.0418823
-0.0428474
-0.0437604
-0.0445976
-0.0454169
-0.0462549
-0.0471301
-0.0480468
-0.0490007
-0.0499824
-0.0509706
-0.0519473
-0.0529438
-0.053962
-0.0550199
-0.0560891
-0.0571734
-0.058294
-0.0594542
-0.0605813
-0.0616756
-0.0628188
-0.063995
-0.0651797
-0.0663968
-0.0676587
-0.0689275
-0.0702118
-0.0715269
-0.0728628
-0.0742254
-0.0755859