/*--------------------------------*- C++ -*----------------------------------*\
| =========                 |                                                 |
| \\      /  F ield         | OpenFOAM: The Open Source CFD Toolbox           |
|  \\    /   O peration     | Version:  2506                                  |
|   \\  /    A nd           | Website:  www.openfoam.com                      |
|    \\/     M anipulation  |                                                 |
\*---------------------------------------------------------------------------*/
FoamFile
{
    version     2.0;
    format      ascii;
    arch        "LSB;label=32;scalar=64";
    class       volVectorField;
    location    "8.15";
    object      U;
}
// * * * * * * * * * * * * * * * * * * * * * * * * * * * * * * * * * * * * * //

dimensions      [0 1 -1 0 0 0 0];

internalField   nonuniform List<vector> 
9600
(
(0.801554 -0.00692893 0)
(1.12534 0.0163832 0)
(0.899834 -0.00893461 0)
(1.07497 -0.0134257 0)
(1.03327 -0.0164465 0)
(1.11251 0.0113777 0)
(1.04878 0.0173427 0)
(1.08337 0.0148583 0)
(1.04234 0.00488652 0)
(1.02932 -0.0205298 0)
(0.972693 -0.0144619 0)
(0.990689 -0.0536877 0)
(0.878826 -0.0138764 0)
(1.07775 -0.0448986 0)
(0.852646 -0.0139174 0)
(1.1675 -0.0213489 0)
(0.854316 -0.00285909 0)
(1.18368 0.00681822 0)
(0.862666 0.00724341 0)
(1.15661 0.0157957 0)
(0.821561 -0.00654551 0)
(1.11785 0.0160168 0)
(0.919541 -0.00853781 0)
(1.05058 -0.0145918 0)
(1.03383 -0.0169997 0)
(1.1057 0.0112381 0)
(1.05852 0.0174897 0)
(1.07562 0.0149133 0)
(1.05644 0.00556738 0)
(1.02797 -0.0191387 0)
(0.995259 -0.0139751 0)
(0.977418 -0.0512178 0)
(0.908331 -0.0160809 0)
(1.02488 -0.0437957 0)
(0.887996 -0.0166499 0)
(1.10265 -0.0213281 0)
(0.914889 -0.00389824 0)
(1.1011 0.00604722 0)
(0.966926 0.00932424 0)
(1.03514 0.0137016 0)
(0.854996 -0.00623287 0)
(1.10028 0.0154073 0)
(0.93889 -0.00808438 0)
(1.01456 -0.0154663 0)
(1.03035 -0.0175573 0)
(1.09169 0.0110142 0)
(1.07111 0.017792 0)
(1.07399 0.0150571 0)
(1.0642 0.00612719 0)
(1.03462 -0.0183629 0)
(1.00572 -0.0132763 0)
(0.983958 -0.0501015 0)
(0.934485 -0.016994 0)
(0.998636 -0.0435188 0)
(0.930657 -0.0183326 0)
(1.04843 -0.0218825 0)
(0.974728 -0.0040458 0)
(1.04238 0.00517633 0)
(1.01688 0.0102605 0)
(1.0144 0.0134063 0)
(0.89472 -0.00603169 0)
(1.07469 0.0149021 0)
(0.954421 -0.007448 0)
(0.98058 -0.0161349 0)
(1.01969 -0.0183345 0)
(1.07566 0.0105765 0)
(1.08072 0.0179347 0)
(1.07786 0.0151808 0)
(1.07029 0.00657114 0)
(1.04039 -0.0174049 0)
(1.01425 -0.0126137 0)
(0.986314 -0.0486628 0)
(0.950224 -0.0172652 0)
(0.980288 -0.0433577 0)
(0.953052 -0.0191893 0)
(1.01619 -0.0229861 0)
(1.00066 -0.0041519 0)
(1.02537 0.00453772 0)
(1.03041 0.0100177 0)
(1.02632 0.0141577 0)
(0.932547 -0.00589364 0)
(1.04791 0.0145975 0)
(0.96565 -0.00672163 0)
(0.958912 -0.0166166 0)
(1.00382 -0.0193 0)
(1.06162 0.00983729 0)
(1.08632 0.0177994 0)
(1.08329 0.0153233 0)
(1.07477 0.0070599 0)
(1.04474 -0.0164711 0)
(1.02021 -0.0118923 0)
(0.992085 -0.0472881 0)
(0.96021 -0.0173511 0)
(0.974055 -0.0430814 0)
(0.961722 -0.0199524 0)
(0.99843 -0.0240238 0)
(1.00378 -0.00460791 0)
(1.02123 0.00379104 0)
(1.03368 0.00954623 0)
(1.03545 0.0147856 0)
(0.962146 -0.00580249 0)
(1.02684 0.0144624 0)
(0.974492 -0.00601677 0)
(0.951878 -0.0168875 0)
(0.987832 -0.0203457 0)
(1.04999 0.00881787 0)
(1.08798 0.0174442 0)
(1.08673 0.0154812 0)
(1.0772 0.00759044 0)
(1.04675 -0.0155186 0)
(1.02492 -0.0111714 0)
(0.99535 -0.0459456 0)
(0.967254 -0.0172768 0)
(0.97297 -0.0427252 0)
(0.96469 -0.0206341 0)
(0.987847 -0.0247763 0)
(0.998779 -0.00557375 0)
(1.01647 0.00299142 0)
(1.03311 0.00876367 0)
(1.03981 0.0147684 0)
(0.980954 -0.00575453 0)
(1.01453 0.0144388 0)
(0.982849 -0.00539079 0)
(0.955682 -0.016948 0)
(0.975758 -0.0213336 0)
(1.03941 0.0075939 0)
(1.08523 0.0169246 0)
(1.08617 0.015615 0)
(1.07694 0.00815052 0)
(1.04657 -0.0145762 0)
(1.02873 -0.0104641 0)
(0.997182 -0.044571 0)
(0.973685 -0.0171555 0)
(0.973983 -0.0422665 0)
(0.966514 -0.0211336 0)
(0.981825 -0.0253398 0)
(0.993077 -0.00676211 0)
(1.01118 0.00223993 0)
(1.03075 0.00743358 0)
(1.04181 0.0142526 0)
(0.99002 -0.00574148 0)
(1.00992 0.0144492 0)
(0.991279 -0.00485942 0)
(0.964941 -0.0168224 0)
(0.968633 -0.0221633 0)
(1.02891 0.00624409 0)
(1.078 0.0162819 0)
(1.08125 0.0156972 0)
(1.07407 0.00871006 0)
(1.04447 -0.0136888 0)
(1.03184 -0.00977106 0)
(0.99747 -0.0432181 0)
(0.980105 -0.0170668 0)
(0.975189 -0.0416873 0)
(0.968365 -0.0215538 0)
(0.978904 -0.0257071 0)
(0.989209 -0.00804678 0)
(1.00753 0.00141354 0)
(1.02876 0.00570741 0)
(1.04323 0.0134663 0)
(0.992491 -0.00575096 0)
(1.00981 0.0144211 0)
(0.999177 -0.00441872 0)
(0.975492 -0.0165453 0)
(0.965467 -0.0227805 0)
(1.01838 0.00486881 0)
(1.0672 0.0155635 0)
(1.07282 0.015695 0)
(1.06909 0.00923776 0)
(1.04099 -0.0128854 0)
(1.03407 -0.00909977 0)
(0.997033 -0.0418798 0)
(0.986637 -0.0170174 0)
(0.976134 -0.0409454 0)
(0.97023 -0.0219963 0)
(0.977584 -0.0258738 0)
(0.987233 -0.00945147 0)
(1.00614 0.000478865 0)
(1.02811 0.00380466 0)
(1.04483 0.0124017 0)
(0.991856 -0.00576934 0)
(1.01106 0.0143127 0)
(1.00567 -0.00405869 0)
(0.984941 -0.0161546 0)
(0.964975 -0.0231644 0)
(1.00823 0.00356335 0)
(1.05441 0.0148082 0)
(1.0623 0.0155828 0)
(1.06261 0.00970306 0)
(1.03678 -0.0121853 0)
(1.03494 -0.00846541 0)
(0.996698 -0.0405754 0)
(0.992646 -0.017021 0)
(0.9772 -0.0400002 0)
(0.971962 -0.0224863 0)
(0.976684 -0.025888 0)
(0.985934 -0.0110123 0)
(1.00588 -0.000539729 0)
(1.02781 0.00181859 0)
(1.04573 0.0110092 0)
(0.990696 -0.00578508 0)
(1.01169 0.0141176 0)
(1.01028 -0.00376818 0)
(0.992242 -0.0156897 0)
(0.966344 -0.0233225 0)
(0.9991 0.002385 0)
(1.04127 0.0140429 0)
(1.05116 0.015356 0)
(1.0552 0.0100758 0)
(1.03245 -0.0115857 0)
(1.03399 -0.00788643 0)
(0.997176 -0.0393077 0)
(0.997005 -0.017075 0)
(0.979 -0.0388341 0)
(0.973492 -0.0229872 0)
(0.975771 -0.0257445 0)
(0.983929 -0.0126848 0)
(1.00457 -0.00165023 0)
(1.0255 -0.000125828 0)
(1.04355 0.00934226 0)
(0.990296 -0.00579069 0)
(1.01103 0.0138542 0)
(1.01305 -0.00353584 0)
(0.997229 -0.0151898 0)
(0.969036 -0.0232866 0)
(0.991673 0.00135694 0)
(1.02917 0.0132907 0)
(1.0405 0.0150239 0)
(1.04735 0.0103491 0)
(1.02843 -0.0110703 0)
(1.03127 -0.00739167 0)
(0.998648 -0.0380772 0)
(0.998901 -0.0171745 0)
(0.981684 -0.0374947 0)
(0.974801 -0.0234501 0)
(0.974973 -0.0254102 0)
(0.980731 -0.0143485 0)
(1.00054 -0.00280539 0)
(1.01941 -0.0019561 0)
(1.03626 0.00752108 0)
(0.990897 -0.00578258 0)
(1.00921 0.01355 0)
(1.01435 -0.00335237 0)
(1.00027 -0.0146904 0)
(0.972477 -0.0230946 0)
(0.986331 0.000488228 0)
(1.01893 0.012573 0)
(1.03097 0.0146111 0)
(1.03957 0.0105166 0)
(1.02491 -0.010618 0)
(1.0274 -0.00701289 0)
(1.0007 -0.036866 0)
(0.998514 -0.0173291 0)
(0.98475 -0.0360506 0)
(0.975977 -0.0238509 0)
(0.974482 -0.0248632 0)
(0.977027 -0.0158532 0)
(0.993818 -0.00390509 0)
(1.00983 -0.00356538 0)
(1.02413 0.00567757 0)
(0.992189 -0.00575863 0)
(1.00672 0.0132285 0)
(1.01463 -0.00320826 0)
(1.00196 -0.0142162 0)
(0.976052 -0.0227863 0)
(0.982927 -0.000227185 0)
(1.01074 0.0119053 0)
(1.02277 0.0141438 0)
(1.03232 0.010579 0)
(1.02187 -0.0102149 0)
(1.02328 -0.00676519 0)
(1.00267 -0.0356608 0)
(0.99686 -0.0175345 0)
(0.987447 -0.0345929 0)
(0.977179 -0.0241736 0)
(0.97431 -0.024124 0)
(0.973968 -0.0170603 0)
(0.986023 -0.0048426 0)
(0.998913 -0.00475941 0)
(1.00981 0.00393404 0)
(0.993711 -0.0057175 0)
(1.00413 0.0129025 0)
(1.01431 -0.00309542 0)
(1.00287 -0.0137806 0)
(0.979279 -0.0223909 0)
(0.980924 -0.000808157 0)
(1.00434 0.0113019 0)
(1.01588 0.0136358 0)
(1.02598 0.0105402 0)
(1.01924 -0.00985614 0)
(1.01964 -0.00664309 0)
(1.00408 -0.034449 0)
(0.995061 -0.0177758 0)
(0.989303 -0.0331841 0)
(0.978479 -0.0244179 0)
(0.974349 -0.0232367 0)
(0.972245 -0.0179006 0)
(0.97915 -0.00558315 0)
(0.989139 -0.00548185 0)
(0.996608 0.00238412 0)
(0.995095 -0.0056597 0)
(1.00183 0.0125792 0)
(1.01371 -0.00301056 0)
(1.00342 -0.0133835 0)
(0.981922 -0.0219229 0)
(0.979768 -0.00127165 0)
(0.999384 0.0107687 0)
(1.01028 0.0130991 0)
(1.02077 0.0104119 0)
(1.01699 -0.00953875 0)
(1.0168 -0.00662722 0)
(1.00483 -0.033222 0)
(0.993773 -0.0180531 0)
(0.990302 -0.0318243 0)
(0.97979 -0.0246025 0)
(0.974494 -0.0222744 0)
(0.971771 -0.0184076 0)
(0.974363 -0.0061479 0)
(0.981931 -0.00579532 0)
(0.98666 0.00105687 0)
(0.996154 -0.00558633 0)
(1.00007 0.0122586 0)
(1.01302 -0.00294704 0)
(1.00379 -0.0130205 0)
(0.983957 -0.0213964 0)
(0.979129 -0.00163904 0)
(0.995656 0.0102993 0)
(1.00593 0.0125409 0)
(1.01673 0.0102088 0)
(1.01512 -0.00925708 0)
(1.01471 -0.0066948 0)
(1.00504 -0.0319813 0)
(0.993111 -0.0183494 0)
(0.990704 -0.030503 0)
(0.980979 -0.0247328 0)
(0.974695 -0.021303 0)
(0.972037 -0.0186222 0)
(0.971701 -0.00658741 0)
(0.977394 -0.00579338 0)
(0.980346 -2.85419e-05 0)
(0.996871 -0.00549883 0)
(0.998855 0.0119367 0)
(1.01236 -0.00289674 0)
(1.00405 -0.0126904 0)
(0.985466 -0.0208195 0)
(0.978877 -0.00193523 0)
(0.993015 0.00988207 0)
(1.00274 0.0119611 0)
(1.0137 0.00994195 0)
(1.0136 -0.0090015 0)
(1.0132 -0.00682553 0)
(1.00492 -0.0307246 0)
(0.992899 -0.0186525 0)
(0.990791 -0.0292003 0)
(0.981978 -0.0248104 0)
(0.974941 -0.0203618 0)
(0.972579 -0.0185975 0)
(0.970568 -0.00698947 0)
(0.974877 -0.00556799 0)
(0.976882 -0.000892309 0)
(0.997319 -0.00539897 0)
(0.998093 0.0116091 0)
(1.01174 -0.00285203 0)
(1.0042 -0.0123887 0)
(0.986558 -0.0201977 0)
(0.978938 -0.002183 0)
(0.991284 0.00950379 0)
(1.00055 0.011362 0)
(1.01149 0.00962251 0)
(1.0124 -0.00876134 0)
(1.01205 -0.00700203 0)
(1.00464 -0.0294527 0)
(0.992922 -0.0189525 0)
(0.990741 -0.0279148 0)
(0.982801 -0.0248233 0)
(0.975238 -0.0194841 0)
(0.973165 -0.0183763 0)
(0.970325 -0.00739084 0)
(0.973613 -0.00522728 0)
(0.975207 -0.00155967 0)
(0.997589 -0.00528841 0)
(0.997655 0.0112718 0)
(1.01116 -0.00280559 0)
(1.00424 -0.0121085 0)
(0.987331 -0.0195374 0)
(0.979231 -0.00240058 0)
(0.990245 0.00915272 0)
(0.999118 0.0107487 0)
(1.00988 0.0092611 0)
(1.01147 -0.00852577 0)
(1.01114 -0.00721526 0)
(1.0043 -0.0281713 0)
(0.993038 -0.0192337 0)
(0.990636 -0.0266569 0)
(0.983496 -0.0247552 0)
(0.975594 -0.018692 0)
(0.973743 -0.0179745 0)
(0.97056 -0.00780925 0)
(0.973062 -0.00486214 0)
(0.974519 -0.00203814 0)
(0.997749 -0.00516809 0)
(0.997432 0.0109215 0)
(1.01061 -0.00275135 0)
(1.00417 -0.0118453 0)
(0.987866 -0.018847 0)
(0.979671 -0.00259974 0)
(0.989699 0.00881887 0)
(0.998239 0.0101287 0)
(1.0087 0.00886178 0)
(1.01073 -0.00828444 0)
(1.01037 -0.00745451 0)
(1.00394 -0.0268892 0)
(0.993182 -0.0194822 0)
(0.990508 -0.0254389 0)
(0.984103 -0.0245904 0)
(0.976013 -0.0179983 0)
(0.974322 -0.0174201 0)
(0.971076 -0.00823694 0)
(0.972938 -0.0045339 0)
(0.974372 -0.00234541 0)
(0.997844 -0.00503917 0)
(0.99735 0.0105571 0)
(1.0101 -0.00268509 0)
(1.00402 -0.0115975 0)
(0.988235 -0.0181331 0)
(0.9802 -0.00278935 0)
(0.989499 0.0084935 0)
(0.997753 0.00950571 0)
(1.00782 0.00842877 0)
(1.01014 -0.00803082 0)
(1.0097 -0.00771038 0)
(1.00357 -0.0256122 0)
(0.993329 -0.0196873 0)
(0.990379 -0.0242753 0)
(0.984646 -0.0243165 0)
(0.976495 -0.0174076 0)
(0.974911 -0.016756 0)
(0.971782 -0.00863635 0)
(0.973109 -0.00427636 0)
(0.974549 -0.00250491 0)
(0.997908 -0.00490303 0)
(0.997349 0.0101793 0)
(1.00964 -0.00260432 0)
(1.00381 -0.0113636 0)
(0.988509 -0.0173987 0)
(0.98078 -0.00297264 0)
(0.989541 0.0081671 0)
(0.997534 0.00888737 0)
(1.00715 0.00796617 0)
(1.00962 -0.00776103 0)
(1.00908 -0.00797554 0)
(1.00318 -0.0243507 0)
(0.993468 -0.0198306 0)
(0.990263 -0.0231786 0)
(0.985137 -0.0239336 0)
(0.977038 -0.0169168 0)
(0.975506 -0.0160187 0)
(0.97262 -0.00897815 0)
(0.973498 -0.00410344 0)
(0.974929 -0.00255804 0)
(0.997967 -0.00475974 0)
(0.997383 0.00978603 0)
(1.00923 -0.00250563 0)
(1.00356 -0.011138 0)
(0.988749 -0.0166495 0)
(0.981392 -0.00315542 0)
(0.989745 0.00783026 0)
(0.997479 0.00828312 0)
(1.00661 0.0074724 0)
(1.00915 -0.00747394 0)
(1.0085 -0.00823776 0)
(1.00278 -0.0231166 0)
(0.993595 -0.0198986 0)
(0.99017 -0.0221607 0)
(0.985585 -0.0234361 0)
(0.977638 -0.0165224 0)
(0.9761 -0.015243 0)
(0.973537 -0.00924901 0)
(0.974042 -0.00404705 0)
(0.975431 -0.00252463 0)
(0.998042 -0.00460845 0)
(0.997416 0.0093741 0)
(1.00885 -0.00238824 0)
(1.0033 -0.0109181 0)
(0.989 -0.0158894 0)
(0.982017 -0.00333759 0)
(0.990042 0.00747727 0)
(0.997504 0.00769265 0)
(1.00614 0.00695555 0)
(1.00868 -0.00717152 0)
(1.00794 -0.00848434 0)
(1.00238 -0.0219177 0)
(0.993712 -0.0198822 0)
(0.99011 -0.0212247 0)
(0.985998 -0.0228321 0)
(0.97829 -0.0162042 0)
(0.976689 -0.0144697 0)
(0.974485 -0.00943265 0)
(0.974695 -0.00410081 0)
(0.975999 -0.00243796 0)
(0.998141 -0.0044507 0)
(0.997427 0.00894708 0)
(1.00851 -0.00225354 0)
(1.00303 -0.0107041 0)
(0.989289 -0.0151256 0)
(0.982648 -0.00350486 0)
(0.990383 0.0071046 0)
(0.997554 0.00711986 0)
(1.00568 0.00641684 0)
(1.00821 -0.00685879 0)
(1.0074 -0.00870502 0)
(1.00197 -0.0207628 0)
(0.993822 -0.0197774 0)
(0.990089 -0.020367 0)
(0.986383 -0.0221376 0)
(0.978985 -0.0159333 0)
(0.977274 -0.0137356 0)
(0.975429 -0.00950847 0)
(0.975417 -0.00423233 0)
(0.976593 -0.00233659 0)
(0.998261 -0.0042866 0)
(0.997412 0.00850576 0)
(1.00817 -0.00210173 0)
(1.00278 -0.0104933 0)
(0.989624 -0.0143622 0)
(0.98328 -0.00366071 0)
(0.990735 0.00670991 0)
(0.997596 0.0065688 0)
(1.00524 0.00585869 0)
(1.00773 -0.00654218 0)
(1.00687 -0.00889183 0)
(1.00158 -0.0196665 0)
(0.993932 -0.0195719 0)
(0.990112 -0.0195901 0)
(0.986751 -0.0213669 0)
(0.979717 -0.0156846 0)
(0.97786 -0.0130608 0)
(0.976347 -0.00948233 0)
(0.976183 -0.00442126 0)
(0.977192 -0.00223987 0)
(0.998394 -0.00411467 0)
(0.997375 0.00804936 0)
(1.00784 -0.00194124 0)
(1.00255 -0.0102818 0)
(0.989994 -0.0135997 0)
(0.983914 -0.00380332 0)
(0.991089 0.00629313 0)
(0.997619 0.00604392 0)
(1.00479 0.00528429 0)
(1.00724 -0.00622691 0)
(1.00636 -0.00904202 0)
(1.00121 -0.0186328 0)
(0.994047 -0.0192726 0)
(0.990183 -0.0188813 0)
(0.987111 -0.0205411 0)
(0.980475 -0.0154366 0)
(0.978456 -0.0124577 0)
(0.977227 -0.00937214 0)
(0.976977 -0.00464441 0)
(0.977791 -0.00216979 0)
(0.998531 -0.00393564 0)
(0.99733 0.00758023 0)
(1.00751 -0.00177394 0)
(1.00235 -0.0100684 0)
(0.990386 -0.0128479 0)
(0.984551 -0.00391719 0)
(0.991443 0.00584867 0)
(0.997623 0.0055438 0)
(1.00435 0.00469435 0)
(1.00674 -0.00592271 0)
(1.00587 -0.0091513 0)
(1.00085 -0.0176621 0)
(0.994167 -0.0188868 0)
(0.990302 -0.0182268 0)
(0.987471 -0.0196822 0)
(0.981253 -0.0151701 0)
(0.979072 -0.0119252 0)
(0.978065 -0.00920114 0)
(0.97779 -0.0048807 0)
(0.978392 -0.00214071 0)
(0.998663 -0.00375041 0)
(0.997293 0.007101 0)
(1.00716 -0.001599 0)
(1.00216 -0.00985286 0)
(0.990781 -0.012109 0)
(0.985191 -0.00399982 0)
(0.9918 0.00537534 0)
(0.997614 0.00506668 0)
(1.00391 0.00410167 0)
(1.00624 -0.0056366 0)
(1.00539 -0.00921191 0)
(1.00051 -0.0167528 0)
(0.994287 -0.0184196 0)
(0.990463 -0.0176196 0)
(0.987839 -0.0188066 0)
(0.982041 -0.0148674 0)
(0.979715 -0.0114598 0)
(0.978861 -0.00898675 0)
(0.978618 -0.00510251 0)
(0.979008 -0.00216557 0)
(0.998786 -0.00355863 0)
(0.997275 0.00661581 0)
(1.0068 -0.0014265 0)
(1.00199 -0.00963089 0)
(0.991168 -0.0113868 0)
(0.985834 -0.0040468 0)
(0.992165 0.00487601 0)
(0.997599 0.0046201 0)
(1.00348 0.00351283 0)
(1.00572 -0.00537545 0)
(1.00492 -0.00921638 0)
(1.00018 -0.0159047 0)
(0.994402 -0.0178783 0)
(0.990658 -0.017044 0)
(0.988215 -0.0179305 0)
(0.982829 -0.0145185 0)
(0.980389 -0.0110545 0)
(0.979625 -0.00874081 0)
(0.979457 -0.00528438 0)
(0.979653 -0.00226329 0)
(0.998898 -0.00336231 0)
(0.997283 0.00612732 0)
(1.00643 -0.0012582 0)
(1.00183 -0.00939586 0)
(0.99154 -0.0106895 0)
(0.986477 -0.0040593 0)
(0.992539 0.00435556 0)
(0.997583 0.00419038 0)
(1.00307 0.00293642 0)
(1.0052 -0.00514966 0)
(1.00446 -0.00917072 0)
(0.999851 -0.0151109 0)
(0.994506 -0.0172685 0)
(0.990879 -0.0164914 0)
(0.988602 -0.0170713 0)
(0.983611 -0.0141118 0)
(0.981095 -0.0106979 0)
(0.980366 -0.00847786 0)
(0.9803 -0.00542293 0)
(0.980335 -0.00241219 0)
(0.999 -0.00316143 0)
(0.997317 0.00563703 0)
(1.00605 -0.00109665 0)
(1.00169 -0.00914552 0)
(0.991897 -0.0100178 0)
(0.987117 -0.00404145 0)
(0.992923 0.00382158 0)
(0.997571 0.00376987 0)
(1.00267 0.00238147 0)
(1.00468 -0.00496424 0)
(1.00401 -0.00908256 0)
(0.999533 -0.0143664 0)
(0.994596 -0.0166116 0)
(0.991117 -0.0159432 0)
(0.989 -0.0162448 0)
(0.984378 -0.0136578 0)
(0.981825 -0.0103704 0)
(0.981092 -0.00820792 0)
(0.981143 -0.00551101 0)
(0.981066 -0.00259162 0)
(0.999096 -0.00295736 0)
(0.997376 0.00514971 0)
(1.00568 -0.000946253 0)
(1.00154 -0.0088791 0)
(0.992241 -0.00937709 0)
(0.98775 -0.00399206 0)
(0.993315 0.00327808 0)
(0.997566 0.0033637 0)
(1.00229 0.00185943 0)
(1.00417 -0.00481641 0)
(1.00357 -0.00895762 0)
(0.999225 -0.0136728 0)
(0.994672 -0.0159188 0)
(0.991365 -0.0153875 0)
(0.989408 -0.0154581 0)
(0.98513 -0.0131757 0)
(0.982573 -0.0100578 0)
(0.981809 -0.00794409 0)
(0.981976 -0.00554478 0)
(0.981841 -0.00279229 0)
(0.999186 -0.0027528 0)
(0.997453 0.00467011 0)
(1.00532 -0.00080949 0)
(1.00141 -0.00859513 0)
(0.992578 -0.00877057 0)
(0.988372 -0.00391381 0)
(0.993713 0.00272695 0)
(0.997569 0.00296012 0)
(1.00194 0.00137057 0)
(1.00366 -0.00470065 0)
(1.00314 -0.00880163 0)
(0.99893 -0.0130244 0)
(0.994735 -0.0152018 0)
(0.99162 -0.0148197 0)
(0.989824 -0.014704 0)
(0.985865 -0.0126744 0)
(0.983332 -0.00975199 0)
(0.982522 -0.00769235 0)
(0.982794 -0.00553391 0)
(0.982645 -0.00298785 0)
(0.999272 -0.00254842 0)
(0.997542 0.00420271 0)
(1.00496 -0.000685343 0)
(1.00127 -0.00830072 0)
(0.992911 -0.00820003 0)
(0.98898 -0.00380511 0)
(0.994114 0.00218055 0)
(0.997583 0.0025569 0)
(1.0016 0.000917269 0)
(1.00317 -0.00460797 0)
(1.00273 -0.00861975 0)
(0.998654 -0.0124156 0)
(0.994791 -0.014476 0)
(0.991879 -0.0142271 0)
(0.990247 -0.0139796 0)
(0.986582 -0.0121591 0)
(0.984094 -0.00943566 0)
(0.983232 -0.00744516 0)
(0.983593 -0.00548783 0)
(0.98347 -0.00316407 0)
(0.999355 -0.00234507 0)
(0.997642 0.0037484 0)
(1.00461 -0.000570553 0)
(1.00115 -0.00799328 0)
(0.993247 -0.00766943 0)
(0.989569 -0.00367089 0)
(0.994516 0.00164344 0)
(0.99761 0.00214977 0)
(1.00128 0.000510387 0)
(1.0027 -0.0045322 0)
(1.00234 -0.00841687 0)
(0.9984 -0.0118394 0)
(0.994845 -0.01375 0)
(0.992142 -0.013621 0)
(0.990673 -0.0132826 0)
(0.987284 -0.0116374 0)
(0.984855 -0.00911193 0)
(0.983937 -0.00720206 0)
(0.984369 -0.00541755 0)
(0.984298 -0.00330461 0)
(0.999435 -0.00214415 0)
(0.99775 0.00330963 0)
(1.00427 -0.000466458 0)
(1.00103 -0.00767146 0)
(0.993586 -0.00717917 0)
(0.990136 -0.00351622 0)
(0.994912 0.00112806 0)
(0.99765 0.0017326 0)
(1.00098 0.000150243 0)
(1.00224 -0.00446756 0)
(1.00197 -0.00819873 0)
(0.998171 -0.0112909 0)
(0.994901 -0.0130404 0)
(0.992409 -0.0130117 0)
(0.991105 -0.0126109 0)
(0.98797 -0.0111152 0)
(0.98561 -0.00878444 0)
(0.984637 -0.00695965 0)
(0.985124 -0.00532813 0)
(0.98512 -0.00341044 0)
(0.999511 -0.00194933 0)
(0.997863 0.00289319 0)
(1.00394 -0.000373208 0)
(1.00092 -0.00734417 0)
(0.993934 -0.006731 0)
(0.99068 -0.00334565 0)
(0.995298 0.000649821 0)
(0.997703 0.00130543 0)
(1.0007 -0.000174865 0)
(1.00181 -0.00440278 0)
(1.00161 -0.00796523 0)
(0.997969 -0.0107646 0)
(0.994962 -0.012346 0)
(0.99268 -0.0123966 0)
(0.991541 -0.0119689 0)
(0.988644 -0.0105999 0)
(0.986358 -0.00844905 0)
(0.98533 -0.00671248 0)
(0.985855 -0.00522267 0)
(0.985927 -0.00349482 0)
(0.999583 -0.00175899 0)
(0.997982 0.00249839 0)
(1.00363 -0.000297397 0)
(1.00082 -0.00700265 0)
(0.994289 -0.00632873 0)
(0.9912 -0.00316422 0)
(0.99567 0.000204971 0)
(0.997771 0.000863715 0)
(1.00045 -0.000478173 0)
(1.00139 -0.00433622 0)
(1.00128 -0.00771518 0)
(0.997795 -0.0102592 0)
(0.99503 -0.0116615 0)
(0.992952 -0.0117807 0)
(0.99198 -0.0113551 0)
(0.989307 -0.0100991 0)
(0.987099 -0.00810853 0)
(0.986016 -0.00645656 0)
(0.98656 -0.00509573 0)
(0.986715 -0.00356334 0)
(0.99965 -0.00157542 0)
(0.998106 0.00212994 0)
(1.00333 -0.00024138 0)
(1.00072 -0.00664949 0)
(0.99465 -0.00596654 0)
(0.991697 -0.00297824 0)
(0.996022 -0.000196992 0)
(0.997852 0.00042009 0)
(1.00022 -0.000760249 0)
(1.001 -0.00427307 0)
(1.00097 -0.00746014 0)
(0.997649 -0.00977486 0)
(0.995107 -0.0110008 0)
(0.993224 -0.0111647 0)
(0.992419 -0.010769 0)
(0.989963 -0.00961733 0)
(0.987837 -0.00776711 0)
(0.986696 -0.00618711 0)
(0.987237 -0.00494519 0)
(0.987477 -0.00360441 0)
(0.999713 -0.00140299 0)
(0.998233 0.00179419 0)
(1.00305 -0.000204276 0)
(1.00063 -0.00628467 0)
(0.995018 -0.005638 0)
(0.992175 -0.00279639 0)
(0.996354 -0.000540446 0)
(0.997948 -2.90483e-05 0)
(1.00002 -0.00103352 0)
(1.00064 -0.00420941 0)
(1.00068 -0.00719384 0)
(0.997533 -0.00930613 0)
(0.995196 -0.0103592 0)
(0.993494 -0.0105502 0)
(0.992855 -0.0102104 0)
(0.990613 -0.0091611 0)
(0.988575 -0.00743583 0)
(0.987373 -0.00592369 0)
(0.987888 -0.00477782 0)
(0.988207 -0.00360598 0)
(0.99977 -0.00124129 0)
(0.998361 0.00149487 0)
(1.00278 -0.00020121 0)
(1.00054 -0.00589941 0)
(0.995389 -0.00534425 0)
(0.992634 -0.00262846 0)
(0.99666 -0.000824281 0)
(0.998052 -0.000470285 0)
(0.999851 -0.00130434 0)
(1.0003 -0.00414121 0)
(1.00041 -0.0069198 0)
(0.997446 -0.00884705 0)
(0.9953 -0.00973826 0)
(0.993757 -0.00994844 0)
(0.99328 -0.00967031 0)
(0.991254 -0.00873303 0)
(0.989312 -0.00712154 0)
(0.988051 -0.00566402 0)
(0.98852 -0.00460213 0)
(0.988897 -0.00356872 0)
(0.999822 -0.00109174 0)
(0.998489 0.00123312 0)
(1.00253 -0.000230824 0)
(1.00045 -0.00550169 0)
(0.995759 -0.00507623 0)
(0.993078 -0.0024837 0)
(0.996941 -0.0010569 0)
(0.998165 -0.000875292 0)
(0.999718 -0.00156164 0)
(1 -0.00407622 0)
(1.00017 -0.0066511 0)
(0.997388 -0.00839325 0)
(0.995418 -0.00913818 0)
(0.994017 -0.0093575 0)
(0.993693 -0.00914647 0)
(0.991882 -0.00832784 0)
(0.990053 -0.00683166 0)
(0.988731 -0.00541352 0)
(0.989136 -0.00443161 0)
(0.989549 -0.00349781 0)
(0.999869 -0.000956201 0)
(0.998612 0.00100843 0)
(1.00231 -0.000286141 0)
(1.00037 -0.00510257 0)
(0.996124 -0.00481642 0)
(0.993509 -0.00237309 0)
(0.997197 -0.00125055 0)
(0.998282 -0.0012295 0)
(0.999618 -0.00179854 0)
(0.999729 -0.00401878 0)
(0.99995 -0.00639077 0)
(0.99736 -0.00795016 0)
(0.995552 -0.00855732 0)
(0.99427 -0.00877387 0)
(0.994088 -0.00863697 0)
(0.992495 -0.00793687 0)
(0.990793 -0.00656613 0)
(0.989415 -0.0051856 0)
(0.989744 -0.00426159 0)
(0.990168 -0.00341952 0)
(0.999911 -0.000835096 0)
(0.998729 0.000821227 0)
(1.00209 -0.0003579 0)
(1.0003 -0.00471375 0)
(0.996478 -0.00455373 0)
(0.993924 -0.00229416 0)
(0.997431 -0.00141172 0)
(0.998401 -0.00153352 0)
(0.999549 -0.00201229 0)
(0.99949 -0.00395546 0)
(0.999759 -0.00613311 0)
(0.997363 -0.00752704 0)
(0.995706 -0.00800096 0)
(0.99452 -0.00820135 0)
(0.994466 -0.00814053 0)
(0.993087 -0.00755797 0)
(0.991532 -0.0063328 0)
(0.990109 -0.00498335 0)
(0.990341 -0.00409309 0)
(0.990766 -0.00335131 0)
(0.999948 -0.000727583 0)
(0.998838 0.000664732 0)
(1.0019 -0.00042673 0)
(1.00024 -0.00435609 0)
(0.996821 -0.00428228 0)
(0.994323 -0.00222098 0)
(0.997646 -0.00154731 0)
(0.998521 -0.00179402 0)
(0.999511 -0.00219563 0)
(0.999286 -0.00387835 0)
(0.999593 -0.00587006 0)
(0.997396 -0.00713333 0)
(0.99588 -0.00748583 0)
(0.994765 -0.00764833 0)
(0.994823 -0.00765241 0)
(0.993651 -0.00718984 0)
(0.992264 -0.00612316 0)
(0.990818 -0.00481636 0)
(0.990932 -0.00393106 0)
(0.991346 -0.00328985 0)
(0.99998 -0.00063146 0)
(0.998938 0.000529956 0)
(1.00172 -0.000487224 0)
(1.00019 -0.00403823 0)
(0.997153 -0.00400518 0)
(0.994704 -0.00214318 0)
(0.997839 -0.00166798 0)
(0.998641 -0.00201849 0)
(0.9995 -0.00233951 0)
(0.999116 -0.00378471 0)
(0.999451 -0.00560095 0)
(0.997453 -0.00677141 0)
(0.996078 -0.00703563 0)
(0.995015 -0.00713669 0)
(0.995161 -0.00717185 0)
(0.994184 -0.00682092 0)
(0.99298 -0.00591265 0)
(0.991545 -0.00468826 0)
(0.991521 -0.00378026 0)
(0.991902 -0.00322078 0)
(1.00001 -0.000547258 0)
(0.999029 0.000415053 0)
(1.00155 -0.000532724 0)
(1.00014 -0.00376596 0)
(0.997474 -0.00373286 0)
(0.995064 -0.00205529 0)
(0.99801 -0.00175828 0)
(0.998762 -0.0022078 0)
(0.999519 -0.0024565 0)
(0.998979 -0.00367296 0)
(0.999327 -0.0053247 0)
(0.997527 -0.00643003 0)
(0.996299 -0.00664149 0)
(0.995277 -0.00667408 0)
(0.995486 -0.00671253 0)
(0.994684 -0.0064495 0)
(0.993668 -0.00569339 0)
(0.992282 -0.00459445 0)
(0.992123 -0.00366271 0)
(0.992433 -0.00313502 0)
(1.00003 -0.000471592 0)
(0.999112 0.000310357 0)
(1.00139 -0.000551407 0)
(1.00011 -0.00352918 0)
(0.997789 -0.00348564 0)
(0.995404 -0.00195289 0)
(0.998159 -0.00180522 0)
(0.998878 -0.00236482 0)
(0.999566 -0.0025682 0)
(0.998876 -0.00354712 0)
(0.999219 -0.00503612 0)
(0.997611 -0.00609276 0)
(0.996538 -0.00628711 0)
(0.995554 -0.00625817 0)
(0.995803 -0.00627814 0)
(0.995153 -0.00608629 0)
(0.994316 -0.00545974 0)
(0.993016 -0.00450166 0)
(0.992748 -0.00358972 0)
(0.992947 -0.00304401 0)
(1.00005 -0.000401449 0)
(0.999189 0.000209603 0)
(1.00123 -0.000553673 0)
(1.00008 -0.0033109 0)
(0.998098 -0.0032653 0)
(0.995729 -0.00183707 0)
(0.998281 -0.00181163 0)
(0.998986 -0.00249145 0)
(0.999642 -0.00267742 0)
(0.998813 -0.00342433 0)
(0.999124 -0.00473619 0)
(0.997695 -0.00575738 0)
(0.996788 -0.00596988 0)
(0.995847 -0.00589705 0)
(0.996115 -0.00588097 0)
(0.995594 -0.0057399 0)
(0.994925 -0.00522041 0)
(0.993727 -0.00438772 0)
(0.99339 -0.00354272 0)
(0.993456 -0.00296395 0)
(1.00006 -0.000337574 0)
(0.99926 0.000119678 0)
(1.00108 -0.000547907 0)
(1.00005 -0.00311121 0)
(0.998403 -0.00308601 0)
(0.996042 -0.00172726 0)
(0.998378 -0.00177037 0)
(0.999077 -0.00255935 0)
(0.999741 -0.00277366 0)
(0.99879 -0.00332046 0)
(0.999045 -0.00442636 0)
(0.99777 -0.00540512 0)
(0.997039 -0.0056632 0)
(0.996156 -0.00558516 0)
(0.996431 -0.00553072 0)
(0.996013 -0.00541455 0)
(0.9955 -0.00499174 0)
(0.99441 -0.00427039 0)
(0.994038 -0.00351113 0)
(0.993976 -0.00292436 0)
(1.00006 -0.000278679 0)
(0.999326 3.27079e-05 0)
(1.00095 -0.000520195 0)
(1.00002 -0.00289554 0)
(0.998704 -0.00295161 0)
(0.996353 -0.00164196 0)
(0.998457 -0.00169098 0)
(0.999147 -0.00257725 0)
(0.999852 -0.00287638 0)
(0.998813 -0.00324918 0)
(0.998991 -0.00412949 0)
(0.997834 -0.00501896 0)
(0.997273 -0.00533346 0)
(0.996467 -0.0052874 0)
(0.996749 -0.00520886 0)
(0.996411 -0.00509903 0)
(0.996036 -0.00476046 0)
(0.995056 -0.00414239 0)
(0.994674 -0.00346881 0)
(0.99451 -0.00291177 0)
(1.00006 -0.000219092 0)
(0.999389 -5.27016e-05 0)
(1.00082 -0.00049283 0)
(0.999991 -0.00267767 0)
(0.998994 -0.00284416 0)
(0.996666 -0.00156334 0)
(0.998523 -0.00156215 0)
(0.999185 -0.00252952 0)
(0.999968 -0.00295462 0)
(0.998884 -0.00322316 0)
(0.998978 -0.00388718 0)
(0.997897 -0.00465451 0)
(0.997484 -0.00500663 0)
(0.996771 -0.00501709 0)
(0.997071 -0.0049377 0)
(0.996793 -0.0048225 0)
(0.996537 -0.00453764 0)
(0.995666 -0.00400838 0)
(0.995286 -0.00340902 0)
(0.995045 -0.00290203 0)
(1.00006 -0.000157781 0)
(0.999446 -0.000138724 0)
(1.0007 -0.000456455 0)
(0.999953 -0.00246461 0)
(0.999276 -0.0027636 0)
(0.996993 -0.00152706 0)
(0.998584 -0.0014255 0)
(0.99919 -0.00242251 0)
(1.00007 -0.00297322 0)
(0.998983 -0.00321221 0)
(0.999004 -0.00367136 0)
(0.997964 -0.00429844 0)
(0.99767 -0.00464986 0)
(0.997055 -0.00473157 0)
(0.997389 -0.00468734 0)
(0.997168 -0.00457965 0)
(0.997013 -0.00433393 0)
(0.996244 -0.00388765 0)
(0.995873 -0.00335603 0)
(0.995574 -0.00290444 0)
(1.00006 -0.00011071 0)
(0.999503 -0.000195405 0)
(1.00061 -0.000417622 0)
(0.999906 -0.00222494 0)
(0.99954 -0.00266596 0)
(0.997333 -0.00149847 0)
(0.998656 -0.00128432 0)
(0.999173 -0.00227018 0)
(1.00015 -0.00295444 0)
(0.999115 -0.00322068 0)
(0.999083 -0.00353788 0)
(0.998055 -0.00399918 0)
(0.997839 -0.00431227 0)
(0.997305 -0.00443559 0)
(0.997685 -0.00444504 0)
(0.997524 -0.00435789 0)
(0.997456 -0.00414611 0)
(0.996785 -0.00376825 0)
(0.996427 -0.00329307 0)
(0.996077 -0.00288164 0)
(1.00005 -4.83865e-05 0)
(0.999559 -0.000330842 0)
(1.00053 -0.000430939 0)
(0.99986 -0.00198678 0)
(0.999789 -0.00255348 0)
(0.99769 -0.00149822 0)
(0.998742 -0.00115784 0)
(0.999129 -0.00207875 0)
(1.0002 -0.00286681 0)
(0.999246 -0.00318373 0)
(0.999202 -0.00344199 0)
(0.998182 -0.00374013 0)
(0.998012 -0.00399147 0)
(0.997538 -0.0041294 0)
(0.997963 -0.00419866 0)
(0.99787 -0.00415622 0)
(0.997881 -0.00398425 0)
(0.997303 -0.00366491 0)
(0.99697 -0.00325231 0)
(0.996563 -0.00285549 0)
(1.00005 6.8346e-07 0)
(0.999614 -0.000394815 0)
(1.00049 -0.000423737 0)
(0.999818 -0.00171633 0)
(1.00001 -0.0024063 0)
(0.998057 -0.00155344 0)
(0.998862 -0.00108222 0)
(0.999085 -0.0018882 0)
(1.00022 -0.00274326 0)
(0.999375 -0.00312691 0)
(0.99935 -0.00336699 0)
(0.998344 -0.00355991 0)
(0.998186 -0.00371224 0)
(0.997741 -0.00383686 0)
(0.998196 -0.0039443 0)
(0.998174 -0.00395421 0)
(0.998267 -0.00382971 0)
(0.997776 -0.00355872 0)
(0.997487 -0.00321642 0)
(0.997027 -0.00282933 0)
(1.00004 4.06935e-05 0)
(0.999667 -0.000367701 0)
(1.00047 -0.000384127 0)
(0.999783 -0.00143078 0)
(1.00019 -0.00222527 0)
(0.998421 -0.00165113 0)
(0.999014 -0.00108588 0)
(0.999035 -0.00170689 0)
(1.00021 -0.00257744 0)
(0.999482 -0.00303782 0)
(0.999507 -0.00327487 0)
(0.998543 -0.00342631 0)
(0.998396 -0.00348991 0)
(0.997947 -0.00356378 0)
(0.998413 -0.00369088 0)
(0.998455 -0.00374853 0)
(0.998631 -0.00368613 0)
(0.99822 -0.00345938 0)
(0.997985 -0.00318617 0)
(0.997492 -0.00283244 0)
(1.00003 8.98415e-05 0)
(0.999714 -0.000385426 0)
(1.00048 -0.000381567 0)
(0.999753 -0.00120999 0)
(1.00032 -0.00200782 0)
(0.998762 -0.00172308 0)
(0.999215 -0.0011514 0)
(0.999023 -0.00154074 0)
(1.00019 -0.00237872 0)
(0.999576 -0.00290545 0)
(0.999666 -0.00316908 0)
(0.998754 -0.0032976 0)
(0.998625 -0.00333542 0)
(0.998151 -0.00333647 0)
(0.998593 -0.00345756 0)
(0.998681 -0.00354252 0)
(0.998943 -0.00354755 0)
(0.998614 -0.00336738 0)
(0.998431 -0.00314867 0)
(0.997943 -0.00284814 0)
(1.00003 0.000115008 0)
(0.999753 -0.000344748 0)
(1.00049 -0.000366515 0)
(0.999747 -0.00101581 0)
(1.00042 -0.00174891 0)
(0.999067 -0.0017239 0)
(0.999444 -0.0012496 0)
(0.999039 -0.001425 0)
(1.00014 -0.00218289 0)
(0.999633 -0.00273946 0)
(0.99981 -0.00305488 0)
(0.998965 -0.00316683 0)