/*--------------------------------*- C++ -*----------------------------------*\
| =========                 |                                                 |
| \\      /  F ield         | OpenFOAM: The Open Source CFD Toolbox           |
|  \\    /   O peration     | Version:  2506                                  |
|   \\  /    A nd           | Website:  www.openfoam.com                      |
|    \\/     M anipulation  |                                                 |
\*---------------------------------------------------------------------------*/
FoamFile
{
    version     2.0;
    format      ascii;
    arch        "LSB;label=32;scalar=64";
    class       volVectorField;
    location    "6.95";
    object      U;
}
// * * * * * * * * * * * * * * * * * * * * * * * * * * * * * * * * * * * * * //

dimensions      [0 1 -1 0 0 0 0];

internalField   nonuniform List<vector> 
9600
(
(0.682913 0.00212414 0)
(1.213 -0.00604127 0)
(0.830259 -0.0188015 0)
(1.27211 0.00714313 0)
(0.905054 0.0169616 0)
(1.11809 0.0135542 0)
(0.887175 -0.0179383 0)
(1.06648 -0.030498 0)
(0.860171 -0.0424616 0)
(1.15473 -0.0298728 0)
(0.924431 -0.0163237 0)
(1.16142 -0.00163982 0)
(0.949841 0.00379305 0)
(1.11002 0.010762 0)
(0.938618 0.0060845 0)
(1.08835 0.000697786 0)
(0.937751 0.000478338 0)
(1.10514 -0.0172408 0)
(0.920648 -0.00117057 0)
(1.12889 -0.0248748 0)
(0.709194 0.00276567 0)
(1.17397 -0.006859 0)
(0.844361 -0.01974 0)
(1.25524 0.00658773 0)
(0.933487 0.017807 0)
(1.09175 0.0139638 0)
(0.957259 -0.0173519 0)
(1.02851 -0.0298434 0)
(0.897258 -0.0442176 0)
(1.10669 -0.0308211 0)
(0.949171 -0.0168165 0)
(1.13025 -0.00197132 0)
(0.983737 0.00444121 0)
(1.07461 0.0110868 0)
(0.990506 0.00657987 0)
(1.0413 0.000635811 0)
(1.01187 6.62471e-05 0)
(1.03576 -0.0176686 0)
(1.02174 -0.00109649 0)
(1.02509 -0.0267593 0)
(0.755415 0.00343954 0)
(1.11735 -0.00758546 0)
(0.868645 -0.0206264 0)
(1.21507 0.00601586 0)
(0.978424 0.0192212 0)
(1.07531 0.013932 0)
(0.996371 -0.0167421 0)
(1.00682 -0.0291643 0)
(0.92942 -0.0446886 0)
(1.05245 -0.0313681 0)
(0.979431 -0.0172637 0)
(1.08671 -0.00242978 0)
(1.01765 0.00533903 0)
(1.04643 0.0111232 0)
(1.02302 0.00710245 0)
(1.03224 0.000158475 0)
(1.0353 -0.000225413 0)
(1.03796 -0.0170228 0)
(1.03605 -0.00234112 0)
(1.0376 -0.0215277 0)
(0.812626 0.00418439 0)
(1.05818 -0.0081499 0)
(0.897036 -0.0215206 0)
(1.15951 0.00527588 0)
(1.02015 0.020267 0)
(1.07043 0.0138917 0)
(1.02632 -0.0159211 0)
(0.998344 -0.0284334 0)
(0.950224 -0.0450095 0)
(1.00904 -0.0321469 0)
(0.99566 -0.0178517 0)
(1.05197 -0.0030129 0)
(1.03259 0.00582509 0)
(1.03844 0.011038 0)
(1.03835 0.00722217 0)
(1.04211 -0.000147074 0)
(1.04744 -0.00024256 0)
(1.04686 -0.0171004 0)
(1.04167 -0.00213204 0)
(1.03946 -0.0197212 0)
(0.871288 0.0049827 0)
(1.00997 -0.00855757 0)
(0.921987 -0.0223763 0)
(1.10301 0.00424297 0)
(1.04803 0.0207342 0)
(1.0738 0.0139597 0)
(1.04482 -0.0150028 0)
(1.00063 -0.0275225 0)
(0.962333 -0.0447422 0)
(0.983381 -0.032795 0)
(0.996837 -0.0185419 0)
(1.03063 -0.00366259 0)
(1.03476 0.00583407 0)
(1.04044 0.0108319 0)
(1.05032 0.00706016 0)
(1.05504 -0.000412628 0)
(1.06018 -0.000381492 0)
(1.05551 -0.0166273 0)
(1.04749 -0.00207694 0)
(1.04074 -0.0178928 0)
(0.923178 0.00573177 0)
(0.980688 -0.00875337 0)
(0.939578 -0.0231525 0)
(1.05764 0.00308157 0)
(1.0623 0.0206944 0)
(1.08034 0.0140888 0)
(1.05638 -0.0140499 0)
(1.00745 -0.0265454 0)
(0.970009 -0.0442074 0)
(0.971178 -0.0333295 0)
(0.990987 -0.0193063 0)
(1.01837 -0.00441121 0)
(1.03369 0.00547214 0)
(1.04574 0.0103582 0)
(1.06214 0.00668834 0)
(1.06808 -0.000732607 0)
(1.07215 -0.000405042 0)
(1.06389 -0.015834 0)
(1.05237 -0.00191808 0)
(1.04228 -0.0157393 0)
(0.963056 0.00633526 0)
(0.97059 -0.00871152 0)
(0.950039 -0.0237959 0)
(1.02783 0.00190569 0)
(1.06765 0.0202176 0)
(1.08602 0.0142076 0)
(1.06302 -0.0130631 0)
(1.01444 -0.0254814 0)
(0.976101 -0.0433877 0)
(0.966228 -0.0336892 0)
(0.984645 -0.0200709 0)
(1.01137 -0.00532676 0)
(1.03372 0.00476709 0)
(1.05265 0.00956978 0)
(1.07333 0.00612715 0)
(1.07967 -0.00104296 0)
(1.08179 -0.000294407 0)
(1.07033 -0.0147466 0)
(1.05553 -0.00156885 0)
(1.04284 -0.0133051 0)
(0.989293 0.0067354 0)
(0.974181 -0.00845834 0)
(0.956012 -0.0242719 0)
(1.01081 0.000714329 0)
(1.06778 0.0194092 0)
(1.08821 0.0142999 0)
(1.06544 -0.0120701 0)
(1.01972 -0.0244134 0)
(0.981462 -0.0424121 0)
(0.964654 -0.0339049 0)
(0.980279 -0.0208385 0)
(1.00764 -0.0064404 0)
(1.03534 0.00374291 0)
(1.05988 0.00850456 0)
(1.08261 0.00544931 0)
(1.08796 -0.0012798 0)
(1.08759 -4.74373e-05 0)
(1.07331 -0.0133726 0)
(1.05616 -0.00101482 0)
(1.04159 -0.0106883 0)
(1.00344 0.00692675 0)
(0.984182 -0.00806332 0)
(0.960437 -0.0245556 0)
(1.00074 -0.000479582 0)
(1.0637 0.0184121 0)
(1.08553 0.0143498 0)
(1.064 -0.0110959 0)
(1.02296 -0.023368 0)
(0.986348 -0.0413036 0)
(0.96488 -0.0339921 0)
(0.977848 -0.0216181 0)
(1.00561 -0.00773093 0)
(1.03711 0.00245426 0)
(1.06531 0.00723727 0)
(1.08797 0.00475874 0)
(1.09117 -0.00138388 0)
(1.08821 0.000347342 0)
(1.07187 -0.0117463 0)
(1.0536 -0.000277253 0)
(1.03821 -0.00800445 0)
(1.00893 0.0069461 0)
(0.994816 -0.00760752 0)
(0.965141 -0.0246333 0)
(0.993012 -0.00161339 0)
(1.05521 0.0173408 0)
(1.07797 0.0143451 0)
(1.05937 -0.0101863 0)
(1.02431 -0.0223989 0)
(0.990777 -0.0401102 0)
(0.966384 -0.0339751 0)
(0.976494 -0.0223921 0)
(1.00353 -0.00915887 0)
(1.03678 0.000967608 0)
(1.0664 0.00586872 0)
(1.08738 0.00412915 0)
(1.08801 -0.00131916 0)
(1.0829 0.000877202 0)
(1.06577 -0.00995208 0)
(1.04769 0.00052331 0)
(1.0327 -0.00537305 0)
(1.00952 0.00684774 0)
(1.00308 -0.00715818 0)
(0.970512 -0.0245185 0)
(0.985984 -0.00261303 0)
(1.04304 0.0162673 0)
(1.06683 0.0142616 0)
(1.05271 -0.00938042 0)
(1.02407 -0.0215391 0)
(0.994646 -0.0388733 0)
(0.968945 -0.0338384 0)
(0.97552 -0.0231024 0)
(1.00005 -0.0106243 0)
(1.03256 -0.00061544 0)
(1.06137 0.00450166 0)
(1.07979 0.00358467 0)
(1.07825 -0.00109544 0)
(1.07197 0.00148713 0)
(1.05555 -0.00809695 0)
(1.03891 0.00128475 0)
(1.02547 -0.00291555 0)
(1.00808 0.00668394 0)
(1.0083 -0.0067564 0)
(0.97604 -0.0242481 0)
(0.980095 -0.00342982 0)
(1.02945 0.0152292 0)
(1.05433 0.0140766 0)
(1.04535 -0.00870492 0)
(1.0227 -0.0208155 0)
(0.99776 -0.037642 0)
(0.972241 -0.033582 0)
(0.974709 -0.0236725 0)
(0.994881 -0.0120002 0)
(1.02414 -0.00215718 0)
(1.05024 0.00321929 0)
(1.06591 0.00313123 0)
(1.06317 -0.000754769 0)
(1.05689 0.00207578 0)
(1.04257 -0.00630151 0)
(1.02833 0.00198068 0)
(1.01724 -0.000741937 0)
(1.00627 0.00649119 0)
(1.01103 -0.00641581 0)
(0.981083 -0.0238661 0)
(0.976175 -0.00405104 0)
(1.01705 0.014254 0)
(1.04255 0.0137838 0)
(1.03839 -0.00816511 0)
(1.02068 -0.0202292 0)
(0.999987 -0.0364553 0)
(0.975771 -0.0332208 0)
(0.974168 -0.0240448 0)
(0.988838 -0.0131779 0)
(1.01301 -0.00354664 0)
(1.03505 0.00208168 0)
(1.04822 0.00275593 0)
(1.0453 -0.000375375 0)
(1.03999 0.00256275 0)
(1.02866 -0.00467568 0)
(1.01731 0.00254245 0)
(1.0089 0.00107779 0)
(1.00474 0.0062893 0)
(1.01212 -0.00613172 0)
(0.985294 -0.0234147 0)
(0.97437 -0.00449104 0)
(1.0074 0.0133604 0)
(1.0327 0.0133942 0)
(1.03242 -0.00774562 0)
(1.01847 -0.019767 0)
(1.00136 -0.0353355 0)
(0.97902 -0.0327838 0)
(0.974019 -0.0241993 0)
(0.983128 -0.0140962 0)
(1.0015 -0.00471492 0)
(1.01895 0.00112605 0)
(1.02996 0.00242182 0)
(1.02757 -2.8593e-05 0)
(1.02374 0.00290482 0)
(1.01564 -0.00329099 0)
(1.00717 0.00294281 0)
(1.00131 0.00253024 0)
(1.00363 0.00608747 0)
(1.0123 -0.00589526 0)
(0.988636 -0.022922 0)
(0.974129 -0.00478748 0)
(1.00068 0.0125543 0)
(1.02507 0.0129301 0)
(1.02762 -0.007423 0)
(1.01637 -0.0194038 0)
(1.00206 -0.0342879 0)
(0.981656 -0.0322937 0)
(0.974247 -0.0241643 0)
(0.978637 -0.014738 0)
(0.991616 -0.00562737 0)
(1.00468 0.000357036 0)
(1.01391 0.00209903 0)
(1.0123 0.000244781 0)
(1.01001 0.00307984 0)
(1.00482 -0.00216281 0)
(0.99885 0.00319297 0)
(0.995064 0.00362577 0)
(1.00287 0.00588942 0)
(1.01204 -0.00569759 0)
(0.991206 -0.0224066 0)
(0.97471 -0.0049762 0)
(0.996268 0.0118311 0)
(1.01937 0.0124148 0)
(1.02388 -0.00717217 0)
(1.01455 -0.0191118 0)
(1.0023 -0.0333043 0)
(0.983601 -0.0317684 0)
(0.974724 -0.023985 0)
(0.97564 -0.0151286 0)
(0.984316 -0.00631082 0)
(0.993736 -0.000245766 0)
(1.00154 0.00178003 0)
(1.00066 0.000433484 0)
(0.999643 0.00311204 0)
(0.996737 -0.00127304 0)
(0.992729 0.00332402 0)
(0.990426 0.0044105 0)
(1.00234 0.00569595 0)
(1.01162 -0.00553022 0)
(0.993116 -0.0218795 0)
(0.975578 -0.00508445 0)
(0.993427 0.0111827 0)
(1.01521 0.011855 0)
(1.02102 -0.00697856 0)
(1.01306 -0.0188679 0)
(1.00227 -0.0323704 0)
(0.984957 -0.0312183 0)
(0.975313 -0.0237044 0)
(0.973953 -0.0153255 0)
(0.979591 -0.00681567 0)
(0.986314 -0.000714491 0)
(0.993039 0.00146503 0)
(0.992689 0.000543388 0)
(0.992575 0.00304669 0)
(0.991282 -0.000583656 0)
(0.988701 0.00337283 0)
(0.987342 0.0049562 0)
(1.00195 0.00550615 0)
(1.01119 -0.00538632 0)
(0.994465 -0.0213432 0)
(0.976479 -0.00513601 0)
(0.991629 0.0105942 0)
(1.01225 0.011261 0)
(1.01885 -0.00682807 0)
(1.01188 -0.0186514 0)
(1.00208 -0.0314727 0)
(0.98589 -0.030645 0)
(0.975924 -0.0233623 0)
(0.973211 -0.0153825 0)
(0.976903 -0.0071863 0)
(0.981793 -0.00108832 0)
(0.987738 0.00115522 0)
(0.987729 0.000586368 0)
(0.988166 0.00292189 0)
(0.987928 -3.39577e-05 0)
(0.98635 0.00336829 0)
(0.985538 0.00532293 0)
(1.00164 0.00531924 0)
(1.01081 -0.00526058 0)
(0.995355 -0.0207976 0)
(0.977344 -0.00514753 0)
(0.990553 0.0100503 0)
(1.01019 0.0106451 0)
(1.01721 -0.00670817 0)
(1.01098 -0.0184462 0)
(1.00183 -0.0305992 0)
(0.986555 -0.0300512 0)
(0.97651 -0.0229814 0)
(0.973069 -0.0153434 0)
(0.975605 -0.00747445 0)
(0.979316 -0.00140228 0)
(0.984699 0.000858494 0)
(0.984904 0.000573917 0)
(0.985625 0.00276963 0)
(0.986043 0.000400144 0)
(0.985175 0.00333111 0)
(0.98466 0.00556073 0)
(1.00135 0.00513432 0)
(1.01049 -0.0051482 0)
(0.995895 -0.0202415 0)
(0.97817 -0.00513999 0)
(0.98999 0.00954009 0)
(1.00881 0.0100092 0)
(1.01596 -0.00661573 0)
(1.01028 -0.0182372 0)
(1.00155 -0.0297453 0)
(0.987063 -0.0294332 0)
(0.977057 -0.0225824 0)
(0.973267 -0.015241 0)
(0.975152 -0.00771112 0)
(0.978129 -0.00168384 0)
(0.983086 0.000575933 0)
(0.983438 0.000521115 0)
(0.98427 0.00260961 0)
(0.985091 0.000739289 0)
(0.984747 0.00327207 0)
(0.984389 0.00569731 0)
(1.00105 0.00495107 0)
(1.01022 -0.00504612 0)
(0.996189 -0.0196744 0)
(0.978964 -0.00512354 0)
(0.989782 0.00905131 0)
(1.0079 0.00936021 0)
(1.01498 -0.00654422 0)
(1.00974 -0.0180172 0)
(1.00128 -0.0289047 0)
(0.987485 -0.028789 0)
(0.977569 -0.0221735 0)
(0.973647 -0.0150993 0)
(0.97517 -0.00790913 0)
(0.977695 -0.00195156 0)
(0.982307 0.00030717 0)
(0.982776 0.000441626 0)
(0.983626 0.0024418 0)
(0.984696 0.00102105 0)
(0.984766 0.00320058 0)
(0.98449 0.00574722 0)
(1.00075 0.00476951 0)
(1.00997 -0.00495216 0)
(0.996328 -0.0190972 0)
(0.979724 -0.00509689 0)
(0.989815 0.00857738 0)
(1.00731 0.00870021 0)
(1.01416 -0.00649157 0)
(1.00926 -0.0177797 0)
(1.00101 -0.0280734 0)
(0.987864 -0.0281233 0)
(0.978061 -0.0217534 0)
(0.974124 -0.0149364 0)
(0.975444 -0.00807811 0)
(0.977687 -0.00221519 0)
(0.982003 5.41853e-05 0)
(0.98257 0.00034019 0)
(0.983403 0.00226828 0)
(0.984626 0.00125846 0)
(0.985041 0.00312773 0)
(0.984811 0.0057273 0)
(1.00046 0.0045902 0)
(1.0097 -0.0048656 0)
(0.996381 -0.0185086 0)
(0.980447 -0.00507543 0)
(0.990008 0.00811163 0)
(1.0069 0.00803404 0)
(1.01344 -0.00645703 0)
(1.0088 -0.01752 0)
(1.00076 -0.0272499 0)
(0.988216 -0.0274415 0)
(0.978557 -0.0213243 0)
(0.974666 -0.0147595 0)
(0.975867 -0.008223 0)
(0.977923 -0.00247931 0)
(0.981975 -0.000192476 0)
(0.982618 0.000222661 0)
(0.983427 0.00208976 0)
(0.984736 0.00145398 0)
(0.985456 0.00305716 0)
(0.985252 0.00565643 0)
(1.00021 0.00441389 0)
(1.00939 -0.00478523 0)
(0.996402 -0.0179097 0)
(0.981132 -0.0050622 0)
(0.990303 0.00765204 0)
(1.0066 0.00736895 0)
(1.01277 -0.00643795 0)
(1.00832 -0.0172395 0)
(1.00052 -0.0264338 0)
(0.988548 -0.0267444 0)
(0.97907 -0.0208872 0)
(0.975257 -0.0145741 0)
(0.976386 -0.00835129 0)
(0.978302 -0.00275265 0)
(0.982111 -0.000428214 0)
(0.982797 9.16573e-05 0)
(0.983591 0.00190711 0)
(0.984932 0.00160966 0)
(0.985929 0.00298159 0)
(0.985744 0.00553723 0)
(1.00002 0.00424057 0)
(1.00904 -0.00470936 0)
(0.996424 -0.0173029 0)
(0.981786 -0.00505019 0)
(0.990655 0.00719174 0)
(1.00635 0.00670945 0)
(1.01213 -0.00643294 0)
(1.00779 -0.0169374 0)
(1.00029 -0.0256264 0)
(0.988857 -0.026036 0)
(0.979607 -0.0204381 0)
(0.975879 -0.0143864 0)
(0.976971 -0.00846319 0)
(0.978763 -0.00303037 0)
(0.982343 -0.000659679 0)
(0.983034 -4.54261e-05 0)
(0.983829 0.00172315 0)
(0.985156 0.00172577 0)
(0.986408 0.00290819 0)
(0.986247 0.00537159 0)
(0.999895 0.00407127 0)
(1.00864 -0.00463905 0)
(0.996465 -0.0166885 0)
(0.982416 -0.00504235 0)
(0.991025 0.00672601 0)
(1.00611 0.00605739 0)
(1.01152 -0.00644131 0)
(1.00722 -0.0166146 0)
(1.00008 -0.0248241 0)
(0.989145 -0.0253188 0)
(0.980165 -0.0199784 0)
(0.976516 -0.0141967 0)
(0.977596 -0.00855532 0)
(0.979265 -0.00330585 0)
(0.982628 -0.000895385 0)
(0.983292 -0.000192554 0)
(0.984101 0.00153988 0)
(0.98538 0.00180344 0)
(0.986865 0.00284562 0)
(0.986743 0.0051617 0)
(0.999831 0.00390587 0)
(1.00824 -0.00457147 0)
(0.996526 -0.0160726 0)
(0.983033 -0.00503707 0)
(0.991383 0.00625939 0)
(1.00586 0.00541717 0)
(1.01093 -0.00646121 0)
(1.00662 -0.0162744 0)
(0.999891 -0.0240254 0)
(0.989416 -0.0245948 0)
(0.980742 -0.0195098 0)
(0.977154 -0.0140027 0)
(0.978244 -0.00862943 0)
(0.979786 -0.00358148 0)
(0.982941 -0.00112935 0)
(0.983556 -0.00034757 0)
(0.984388 0.001349 0)
(0.985599 0.00184597 0)
(0.987287 0.00279584 0)
(0.987226 0.00491372 0)
(0.99981 0.0037431 0)
(1.00785 -0.00450399 0)
(0.996604 -0.0154569 0)
(0.983647 -0.00502934 0)
(0.991712 0.00578881 0)
(1.0056 0.0047891 0)
(1.01035 -0.00648647 0)
(1.00602 -0.0159208 0)
(0.999724 -0.0232337 0)
(0.989676 -0.0238708 0)
(0.981333 -0.019033 0)
(0.977786 -0.0138004 0)
(0.978902 -0.00868838 0)
(0.980316 -0.00384584 0)
(0.983267 -0.00135718 0)
(0.983822 -0.000499187 0)
(0.98468 0.00115122 0)
(0.985817 0.00185442 0)
(0.987668 0.00275704 0)
(0.987692 0.00465357 0)
(0.999808 0.00358217 0)
(1.00749 -0.00443542 0)
(0.996694 -0.0148428 0)
(0.984265 -0.00501566 0)
(0.992007 0.00531245 0)
(1.00532 0.00416869 0)
(1.00978 -0.00651605 0)
(1.00543 -0.0155582 0)
(0.999575 -0.0224473 0)
(0.989934 -0.0231461 0)
(0.981938 -0.0185508 0)
(0.97841 -0.0135924 0)
(0.979564 -0.00873624 0)
(0.980851 -0.0040927 0)
(0.983599 -0.00158298 0)
(0.984091 -0.000652553 0)
(0.98497 0.000956111 0)
(0.98604 0.00181813 0)
(0.98801 0.00270686 0)
(0.988135 0.00440323 0)
(0.999806 0.00342229 0)
(1.00716 -0.00436306 0)
(0.996793 -0.0142345 0)
(0.984891 -0.00499531 0)
(0.992274 0.00483129 0)
(1.00502 0.00356444 0)
(1.00921 -0.00654929 0)
(1.00486 -0.0151869 0)
(0.999436 -0.021665 0)
(0.990198 -0.0224187 0)
(0.982553 -0.0180658 0)
(0.979032 -0.0133771 0)
(0.980226 -0.00877638 0)
(0.981393 -0.00432834 0)
(0.983932 -0.0018024 0)
(0.984363 -0.00081144 0)
(0.985255 0.000761749 0)
(0.986266 0.00174778 0)
(0.988317 0.00263383 0)
(0.988553 0.00416242 0)
(0.999794 0.00326395 0)
(1.00685 -0.00428815 0)
(0.996901 -0.0136332 0)
(0.985527 -0.0049659 0)
(0.992526 0.00434903 0)
(1.0047 0.00297394 0)
(1.00864 -0.00658482 0)
(1.00431 -0.0148079 0)
(0.9993 -0.0208918 0)
(0.99047 -0.0216885 0)
(0.983174 -0.0175757 0)
(0.979654 -0.0131434 0)
(0.980889 -0.00880731 0)
(0.981946 -0.00455307 0)
(0.98427 -0.00200516 0)
(0.984639 -0.000972757 0)
(0.985536 0.000559814 0)
(0.986498 0.00165794 0)
(0.988594 0.00254992 0)
(0.988946 0.00392426 0)
(0.999769 0.00310634 0)
(1.00656 -0.00420785 0)
(0.997017 -0.0130415 0)
(0.986173 -0.00492851 0)
(0.992776 0.00386797 0)
(1.00437 0.00239056 0)
(1.00806 -0.00662142 0)
(1.00378 -0.0144264 0)
(0.999159 -0.0201318 0)
(0.990752 -0.0209587 0)
(0.983797 -0.0170823 0)
(0.98028 -0.0128866 0)
(0.98155 -0.00882332 0)
(0.982512 -0.00476615 0)
(0.984615 -0.00219013 0)
(0.984919 -0.00112186 0)
(0.985819 0.000353528 0)
(0.986739 0.00154125 0)
(0.988848 0.00245846 0)
(0.989313 0.00368357 0)
(0.999735 0.00294933 0)
(1.00626 -0.00411996 0)
(0.997141 -0.0124614 0)
(0.986825 -0.0048843 0)
(0.993034 0.00339132 0)
(1.00403 0.00181766 0)
(1.00747 -0.00665855 0)
(1.00327 -0.0140414 0)
(0.999009 -0.0193809 0)
(0.991043 -0.0202372 0)
(0.98442 -0.0165921 0)
(0.980911 -0.0126145 0)
(0.982208 -0.00881954 0)
(0.983094 -0.00496734 0)
(0.984976 -0.00236749 0)
(0.985203 -0.00125617 0)
(0.986105 0.000152101 0)
(0.986993 0.00139167 0)
(0.98909 0.00235254 0)
(0.989655 0.0034462 0)
(0.999698 0.00279368 0)
(1.00596 -0.00402528 0)
(0.997271 -0.0118927 0)
(0.987483 -0.00483772 0)
(0.993303 0.00292537 0)
(1.0037 0.00125653 0)
(1.00688 -0.00669799 0)
(1.00278 -0.0136517 0)
(0.998848 -0.0186396 0)
(0.991336 -0.0195261 0)
(0.985037 -0.0161059 0)
(0.981545 -0.0123313 0)
(0.982862 -0.00879375 0)
(0.98369 -0.00515462 0)
(0.985358 -0.00254393 0)
(0.985494 -0.00138228 0)
(0.986398 -4.52969e-05 0)
(0.987262 0.00121941 0)
(0.98933 0.00223011 0)
(0.989973 0.00322665 0)
(0.99966 0.00264169 0)
(1.00564 -0.00392778 0)
(0.997405 -0.0113325 0)
(0.988141 -0.00479058 0)
(0.993584 0.00247061 0)
(1.00337 0.000716239 0)
(1.00631 -0.00674195 0)
(1.00231 -0.0132568 0)
(0.998679 -0.0179087 0)
(0.991628 -0.0188224 0)
(0.985646 -0.0156268 0)
(0.98218 -0.0120327 0)
(0.983509 -0.00873808 0)
(0.984297 -0.00532806 0)
(0.985764 -0.00271791 0)
(0.985794 -0.00150005 0)
(0.986699 -0.00023202 0)
(0.987549 0.00103441 0)
(0.989577 0.00208467 0)
(0.990266 0.00302845 0)
(0.999625 0.00249204 0)
(1.00533 -0.00382526 0)
(0.997541 -0.0107836 0)
(0.988795 -0.0047487 0)
(0.993871 0.00203031 0)
(1.00304 0.000197155 0)
(1.00574 -0.00679285 0)
(1.00185 -0.0128632 0)
(0.998506 -0.0171829 0)
(0.991915 -0.0181239 0)
(0.986248 -0.015157 0)
(0.982812 -0.0117244 0)
(0.984145 -0.00865114 0)
(0.98491 -0.00548071 0)
(0.986194 -0.00289104 0)
(0.986105 -0.00161307 0)
(0.987006 -0.000403636 0)
(0.987849 0.000842415 0)
(0.989836 0.00191265 0)
(0.990539 0.00284396 0)
(0.999593 0.00234553 0)
(1.00501 -0.00371833 0)
(0.997676 -0.0102475 0)
(0.989442 -0.00471545 0)
(0.994159 0.00160169 0)
(1.00273 -0.000294194 0)
(1.00519 -0.00684817 0)
(1.00142 -0.0124736 0)
(0.998333 -0.0164635 0)
(0.992194 -0.0174289 0)
(0.98684 -0.0146995 0)
(0.983441 -0.011421 0)
(0.984769 -0.0085408 0)
(0.985524 -0.00560688 0)
(0.986646 -0.00306097 0)
(0.986428 -0.00172372 0)
(0.987318 -0.000562815 0)
(0.988159 0.000649239 0)
(0.990109 0.00171964 0)
(0.990801 0.0026507 0)
(0.999565 0.00220354 0)
(1.0047 -0.00361411 0)
(0.997811 -0.00971477 0)
(0.990078 -0.00468556 0)
(0.994445 0.00117894 0)
(1.00243 -0.000753601 0)
(1.00466 -0.006903 0)
(1.00101 -0.0120951 0)
(0.998164 -0.0157586 0)
(0.992462 -0.016738 0)
(0.987422 -0.0142494 0)
(0.984067 -0.0111213 0)
(0.985378 -0.00840941 0)
(0.986135 -0.00571171 0)
(0.987118 -0.00322687 0)
(0.986764 -0.00183036 0)
(0.987633 -0.000711853 0)
(0.988474 0.000454669 0)
(0.990393 0.00151762 0)
(0.991062 0.00243598 0)
(0.99954 0.00206626 0)
(1.00439 -0.003514 0)
(0.997944 -0.00918515 0)
(0.9907 -0.00466109 0)
(0.994725 0.000769528 0)
(1.00213 -0.00117493 0)
(1.00416 -0.00695028 0)
(1.00063 -0.0117332 0)
(0.998003 -0.0150706 0)
(0.99272 -0.0160517 0)
(0.987994 -0.0138048 0)
(0.984688 -0.0108297 0)
(0.985972 -0.00826432 0)
(0.986737 -0.0057944 0)
(0.987607 -0.00338941 0)
(0.987113 -0.0019304 0)
(0.987948 -0.000844374 0)
(0.988794 0.000261868 0)
(0.990683 0.00131334 0)
(0.991326 0.0022069 0)
(0.999518 0.00193289 0)
(1.0041 -0.00341564 0)
(0.998076 -0.00866313 0)
(0.991307 -0.00463742 0)
(0.995 0.000369275 0)
(1.00184 -0.00155581 0)
(1.00367 -0.0069886 0)
(1.00027 -0.0113871 0)
(0.997854 -0.0144016 0)
(0.992966 -0.0153666 0)
(0.988554 -0.0133573 0)
(0.985307 -0.0105426 0)
(0.986554 -0.00811065 0)
(0.987329 -0.00585305 0)
(0.988111 -0.00354957 0)
(0.987478 -0.00202979 0)
(0.988262 -0.000956921 0)
(0.989112 7.69385e-05 0)
(0.990978 0.00110145 0)
(0.991591 0.00197463 0)
(0.999498 0.00180375 0)
(1.00381 -0.00331944 0)
(0.998205 -0.00815534 0)
(0.991898 -0.00460519 0)
(0.995268 -3.08524e-05 0)
(1.00156 -0.0019086 0)
(1.00321 -0.00700942 0)
(0.999941 -0.0110588 0)
(0.997719 -0.0137579 0)
(0.993202 -0.0146888 0)
(0.9891 -0.0128994 0)
(0.985922 -0.0102529 0)
(0.987122 -0.00794252 0)
(0.987907 -0.00589244 0)
(0.988628 -0.00370865 0)
(0.987861 -0.0021306 0)
(0.988574 -0.00105019 0)
(0.989424 -0.000105137 0)
(0.991275 0.00087109 0)
(0.991858 0.00173956 0)
(0.999481 0.00167851 0)
(1.00354 -0.00322184 0)
(0.998334 -0.00767182 0)
(0.99247 -0.00455913 0)
(0.995529 -0.000431571 0)
(1.00129 -0.00223519 0)
(1.00277 -0.00699918 0)
(0.99964 -0.010746 0)
(0.997602 -0.0131498 0)
(0.99343 -0.0140254 0)
(0.989632 -0.0124431 0)
(0.986533 -0.00996838 0)
(0.987679 -0.00776665 0)
(0.988469 -0.00591786 0)
(0.989157 -0.00386991 0)
(0.988268 -0.00223963 0)
(0.988883 -0.00112352 0)
(0.98972 -0.000271107 0)
(0.991573 0.000623381 0)
(0.992134 0.00148613 0)
(0.999467 0.00155418 0)
(1.00328 -0.00311898 0)
(0.998462 -0.00721549 0)
(0.99302 -0.00448876 0)
(0.995783 -0.000831143 0)
(1.00104 -0.00255097 0)
(1.00235 -0.00695862 0)
(0.999365 -0.0104296 0)
(0.997506 -0.0125759 0)
(0.993652 -0.0133756 0)
(0.990147 -0.0119819 0)
(0.98714 -0.00967414 0)
(0.988225 -0.00758376 0)
(0.989014 -0.00592049 0)
(0.989696 -0.00402416 0)
(0.988706 -0.00236899 0)
(0.989197 -0.00119432 0)
(0.989994 -0.000407078 0)
(0.99186 0.000383804 0)
(0.992421 0.00121126 0)
(0.999455 0.00143348 0)
(1.00304 -0.00301208 0)
(0.99859 -0.00679804 0)
(0.993549 -0.00438777 0)
(0.996026 -0.00120969 0)
(1.0008 -0.00286299 0)
(1.00195 -0.00689293 0)
(0.999114 -0.0101047 0)
(0.997429 -0.0120318 0)
(0.993873 -0.0127497 0)
(0.990649 -0.0115076 0)
(0.987739 -0.00936726 0)
(0.988759 -0.0073925 0)
(0.98954 -0.00589362 0)
(0.990239 -0.00416466 0)
(0.989174 -0.00251325 0)
(0.989526 -0.00128105 0)
(0.990251 -0.000519278 0)
(0.992128 0.000168415 0)
(0.992718 0.0009082 0)
(0.999445 0.00131173 0)
(1.00281 -0.00289105 0)
(0.99872 -0.00642311 0)
(0.994056 -0.00426461 0)
(0.996256 -0.00155546 0)
(1.00059 -0.00317058 0)
(1.00158 -0.00681497 0)
(0.998886 -0.00977334 0)
(0.99737 -0.0115165 0)
(0.994097 -0.012159 0)
(0.991139 -0.0110304 0)
(0.988329 -0.00905009 0)
(0.98928 -0.00719139 0)
(0.990045 -0.00584447 0)
(0.990781 -0.0042879 0)
(0.989673 -0.00266978 0)
(0.989881 -0.00138714 0)
(0.9905 -0.00062968 0)
(0.992363 -2.00351e-05 0)
(0.993009 0.000607665 0)
(0.999438 0.00119064 0)
(1.00259 -0.00275867 0)
(0.99885 -0.0060865 0)
(0.994541 -0.00413262 0)
(0.99647 -0.00185073 0)
(1.00039 -0.00347395 0)
(1.00125 -0.00673548 0)
(0.998682 -0.00942273 0)
(0.997325 -0.0110159 0)
(0.994324 -0.011601 0)
(0.991623 -0.0105586 0)
(0.988912 -0.00872634 0)
(0.989786 -0.00698424 0)
(0.990526 -0.00577452 0)
(0.991314 -0.00438931 0)
(0.990196 -0.00284139 0)
(0.990263 -0.0015127 0)
(0.990753 -0.000744506 0)
(0.992577 -0.000188385 0)
(0.993277 0.00035557 0)
(0.999434 0.00106933 0)
(1.00237 -0.00261412 0)
(0.998982 -0.00578426 0)
(0.995009 -0.00400917 0)
(0.996665 -0.00207365 0)
(1.00021 -0.00375364 0)
(1.00095 -0.00666234 0)
(0.998503 -0.00905532 0)
(0.997293 -0.0105165 0)
(0.994554 -0.0110767 0)
(0.992102 -0.0101039 0)
(0.989489 -0.00839809 0)
(0.990282 -0.00677359 0)
(0.990983 -0.00568152 0)
(0.99183 -0.00446837 0)
(0.990737 -0.003021 0)
(0.990679 -0.00166048 0)
(0.991015 -0.000859227 0)
(0.99278 -0.000350723 0)
(0.993516 0.00013665 0)
(0.999432 0.000947415 0)
(1.00217 -0.00245962 0)
(0.999111 -0.00550519 0)
(0.995463 -0.00391033 0)
(0.996841 -0.0022256 0)
(1.00005 -0.00398965 0)
(1.00069 -0.0066038 0)
(0.998356 -0.00867751 0)
(0.997271 -0.0100064 0)
(0.994784 -0.0105775 0)
(0.992579 -0.0096793 0)
(0.990063 -0.0080816 0)
(0.990768 -0.00656428 0)
(0.991416 -0.00556879 0)
(0.992321 -0.00451185 0)
(0.991288 -0.00319618 0)
(0.991128 -0.00183256 0)
(0.991293 -0.000973577 0)
(0.992977 -0.000507777 0)
(0.99373 -6.43202e-05 0)
(0.999432 0.00082875 0)
(1.00198 -0.00230581 0)
(0.999234 -0.00523906 0)
(0.995906 -0.00383982 0)
(0.997 -0.00232292 0)
(0.999892 -0.00417261 0)
(1.00047 -0.00655739 0)
(0.998245 -0.00831758 0)
(0.997258 -0.00948308 0)
(0.99501 -0.0100779 0)
(0.993049 -0.00928523 0)
(0.990633 -0.00779189 0)
(0.99125 -0.00636458 0)
(0.991833 -0.00544354 0)
(0.992785 -0.00452038 0)
(0.991836 -0.00334948 0)
(0.991615 -0.00203212 0)
(0.991595 -0.00109768 0)
(0.993168 -0.000645674 0)
(0.993938 -0.000261535 0)
(0.999433 0.000710852 0)
(1.0018 -0.00214827 0)
(0.999348 -0.00497962 0)
(0.996339 -0.00380587 0)
(0.997147 -0.00238841 0)
(0.999736 -0.00428602 0)
(1.00029 -0.00651205 0)
(0.998176 -0.00798923 0)
(0.997259 -0.00895397 0)
(0.995224 -0.00957021 0)
(0.993508 -0.00891419 0)
(0.991199 -0.0075312 0)
(0.991729 -0.00617479 0)
(0.992237 -0.00531093 0)
(0.993222 -0.00450047 0)
(0.992369 -0.00346255 0)
(0.992129 -0.00223521 0)
(0.991937 -0.00125549 0)
(0.993358 -0.000761645 0)
(0.994138 -0.000460396 0)
(0.999436 0.000597375 0)
(1.00162 -0.00199361 0)
(0.999447 -0.00471845 0)
(0.996763 -0.00381126 0)
(0.997289 -0.00243668 0)
(0.999578 -0.0043215 0)
(1.00014 -0.00645409 0)
(0.998152 -0.0076953 0)
(0.997278 -0.00844048 0)
(0.995422 -0.00904635 0)
(0.993946 -0.00854009 0)
(0.991761 -0.00729485 0)
(0.992211 -0.00600355 0)
(0.992632 -0.0051775 0)
(0.993637 -0.00445502 0)
(0.992882 -0.00353921 0)
(0.992653 -0.0024108 0)
(0.992321 -0.00143897 0)
(0.993556 -0.000876055 0)
(0.994319 -0.000627909 0)
(0.999439 0.000491574 0)
(1.00146 -0.00185283 0)
(0.999527 -0.00445132 0)
(0.997173 -0.00384614 0)
(0.997434 -0.0024808 0)
(0.999418 -0.0042846 0)
(1 -0.00635412 0)
(0.99817 -0.00744939 0)
(0.997323 -0.0079659 0)
(0.995607 -0.00851111 0)
(0.994355 -0.00814862 0)
(0.992308 -0.007065 0)
(0.992694 -0.00585702 0)
(0.993025 -0.00505194 0)
(0.994032 -0.00439035 0)
(0.993374 -0.00359118 0)
(0.993175 -0.00255959 0)
(0.99274 -0.00162785 0)
(0.993783 -0.00101248 0)
(0.994481 -0.000757387 0)
(0.999442 0.000395434 0)
(1.0013 -0.00172814 0)
(0.999584 -0.00417417 0)
(0.997568 -0.00389998 0)
(0.997589 -0.00254078 0)
(0.99926 -0.00419212 0)
(0.999865 -0.00619643 0)
(0.998219 -0.0072325 0)
(0.997404 -0.00754153 0)
(0.995785 -0.00797915 0)
(0.99473 -0.00773326 0)
(0.992833 -0.00682905 0)
(0.993176 -0.00572872 0)
(0.993421 -0.00494267 0)
(0.99441 -0.00431336 0)
(0.993841 -0.0036122 0)
(0.993688 -0.00268602 0)
(0.99318 -0.00180458 0)
(0.994047 -0.0011705 0)
(0.994636 -0.000874933 0)
(0.999445 0.000309173 0)
(1.00116 -0.00162631 0)
(0.999616 -0.00387929 0)
(0.997939 -0.00394653 0)
(0.997761 -0.00263141 0)
(0.999113 -0.00406404 0)
(0.999728 -0.00598445 0)
(0.998289 -0.00702611 0)
(0.997521 -0.00718827 0)
(0.995966 -0.00747759 0)
(0.995068 -0.00728561 0)
(0.993321 -0.00656386 0)
(0.993647 -0.00560055 0)
(0.993821 -0.00485171 0)
(0.994781 -0.0042396 0)
(0.994282 -0.00360624 0)
(0.994185 -0.00278435 0)
(0.993631 -0.00196217 0)
(0.994343 -0.00132998 0)
(0.994803 -0.000997519 0)
(0.999446 0.00024034 0)
(1.00103 -0.00156344 0)
(0.999628 -0.00358298 0)
(0.998279 -0.00397034 0)
(0.997951 -0.00274895 0)
(0.998986 -0.00391199 0)
(0.999581 -0.00570005 0)
(0.998361 -0.00679883 0)
(0.997673 -0.00690633 0)
(0.996168 -0.00703911 0)
(0.99538 -0.00683746 0)
(0.993764 -0.00626232 0)
(0.994096 -0.0054562 0)
(0.994221 -0.00477473 0)
(0.995148 -0.00417658 0)
(0.994702 -0.00358654 0)
(0.994659 -0.00285018 0)
(0.994083 -0.00210056 0)
(0.994665 -0.00148611 0)
(0.994988 -0.00112609 0)
(0.999445 0.000184874 0)
(1.00092 -0.00152539 0)
(0.999625 -0.003293 0)
(0.998585 -0.00397082 0)
(0.998161 -0.00288538 0)
(0.998896 -0.00377177 0)
(0.999429 -0.00536556 0)
(0.998415 -0.00652541 0)
(0.997842 -0.00666056 0)
(0.996395 -0.00667379 0)
(0.99568 -0.00641531 0)
(0.994164 -0.00593132 0)
(0.994506 -0.00527747 0)
(0.994611 -0.00469728 0)
(0.995516 -0.00412905 0)
(0.99511 -0.00356884 0)
(0.99511 -0.00289787 0)
(0.994523 -0.00221482 0)
(0.995003 -0.00163579 0)
(0.995196 -0.00125664 0)
(0.999443 0.000146089 0)
(1.00084 -0.00151392 0)
(0.999611 -0.00302288 0)
(0.998852 -0.00391978 0)
(0.998388 -0.00300842 0)
(0.998849 -0.00364453 0)
(0.999282 -0.00501775 0)
(0.998447 -0.00620965 0)
(0.998015 -0.00641755 0)
(0.99665 -0.00639462 0)
(0.995985 -0.0060488 0)
(0.99453 -0.00559404 0)
(0.994871 -0.00506002 0)
(0.994974 -0.00459241 0)
(0.995877 -0.00408354 0)
(0.99551 -0.00355285 0)
(0.995545 -0.00293551 0)
(0.994951 -0.00230166 0)
(0.995347 -0.00176203 0)
(0.995425 -0.00138516 0)
(0.99944 0.000122418 0)
(1.00076 -0.00149793 0)
(0.999595 -0.00274958 0)
(0.999082 -0.00379758 0)
(0.998624 -0.00313408 0)
(0.998847 -0.0035708 0)
(0.999146 -0.00468975 0)
(0.998452 -0.00586214 0)
(0.998167 -0.00615338 0)
(0.996917 -0.0061609 0)
(0.99631 -0.0057585 0)
(0.994881 -0.00527532 0)
(0.995196 -0.00481302 0)
(0.995301 -0.00445818 0)
(0.99622 -0.0040293 0)
(0.995897 -0.00353802 0)
(0.995967 -0.00296745 0)
(0.995368 -0.00238022 0)
(0.995687 -0.00186908 0)
(0.995668 -0.00150905 0)
(0.999437 0.000110968 0)
(1.00071 -0.00146855 0)
(0.999581 -0.00247876 0)
(0.999262 -0.00361673 0)
(0.998847 -0.00323106 0)
(0.998893 -0.00356619 0)
(0.999038 -0.00439564 0)
(0.998439 -0.00550243 0)
(0.998292 -0.00586274 0)
(0.997178 -0.00592935 0)
(0.99665 -0.00554181 0)
(0.995234 -0.00500873 0)
(0.995482 -0.0045553 0)
(0.995578 -0.00429313 0)
(0.99653 -0.003957 0)
(0.996265 -0.00352146 0)
(0.99637 -0.00299404 0)
(0.995772 -0.00245315 0)
(0.996022 -0.0019679 0)
(0.995912 -0.00161475 0)
(0.999435 0.000109478 0)
(1.00066 -0.0014432 0)
(0.999575 -0.00224357 0)
(0.999403 -0.00339854 0)
(0.999044 -0.00326176 0)
(0.998976 -0.00359862 0)
(0.998968 -0.00414851 0)
(0.998413 -0.00515251 0)
(0.998385 -0.00554708 0)
(0.997412 -0.00568066 0)
(0.996991 -0.00535114 0)
(0.995605 -0.00480468 0)
(0.995756 -0.00430813 0)
(0.995809 -0.00408976 0)
(0.996796 -0.0038549 0)
(0.996606 -0.00349073 0)
(0.996753 -0.00301268 0)
(0.996161 -0.00250615 0)
(0.996356 -0.00206036 0)
(0.996157 -0.00170439 0)
(0.999433 0.000114112 0)
(1.00063 -0.00139906 0)
(0.999579 -0.00205201 0)
(0.999508 -0.0031808 0)
(0.999203 -0.00323312 0)
(0.999086 -0.00362803 0)
(0.998944 -0.00394031 0)
(0.998393 -0.00479974 0)
(0.998455 -0.00520587 0)
(0.997617 -0.0054052 0)
(0.997315 -0.00515146 0)