/*--------------------------------*- C++ -*----------------------------------*\
| =========                 |                                                 |
| \\      /  F ield         | OpenFOAM: The Open Source CFD Toolbox           |
|  \\    /   O peration     | Version:  2506                                  |
|   \\  /    A nd           | Website:  www.openfoam.com                      |
|    \\/     M anipulation  |                                                 |
\*---------------------------------------------------------------------------*/
FoamFile
{
    version     2.0;
    format      ascii;
    arch        "LSB;label=32;scalar=64";
    class       volScalarField;
    location    "8.25";
    object      p;
}
// * * * * * * * * * * * * * * * * * * * * * * * * * * * * * * * * * * * * * //

dimensions      [0 2 -2 0 0 0 0];

internalField   nonuniform List<scalar> 
9600
(
2.94221e-11
-0.00481898
-0.00356796
0.00104828
-0.00572788
-0.00888832
-0.00335157
-0.00432382
-0.00794791
-0.0086782
-0.00784944
-0.0111688
-0.0136486
-0.0131076
-0.0164863
-0.0170529
-0.0192839
-0.0192563
-0.0203847
-0.0211912
1.45687e-06
-0.00482369
-0.00356074
0.00102325
-0.00570885
-0.00886619
-0.00338417
-0.0043182
-0.0079395
-0.00870178
-0.0078358
-0.0111858
-0.0136167
-0.0131545
-0.0164563
-0.0170529
-0.0192562
-0.019248
-0.0203666
-0.0211897
3.07637e-06
-0.00482967
-0.00355766
0.000991446
-0.00566549
-0.00883168
-0.00342408
-0.00431049
-0.00793574
-0.00873082
-0.00782523
-0.0112092
-0.0135788
-0.0132089
-0.0163975
-0.0170532
-0.0191996
-0.0192462
-0.0203561
-0.021167
3.11805e-06
-0.00483678
-0.00356045
0.000947493
-0.00561699
-0.00878627
-0.0034716
-0.0043164
-0.00793947
-0.00876488
-0.00782914
-0.0112422
-0.0135392
-0.0132684
-0.016329
-0.0170518
-0.0191407
-0.0192627
-0.0203543
-0.0211511
1.36688e-06
-0.00484517
-0.00356838
0.000887841
-0.00556706
-0.00873048
-0.00353206
-0.00433426
-0.00794814
-0.00880653
-0.00784375
-0.011284
-0.013496
-0.0133373
-0.0162559
-0.0170504
-0.0190928
-0.0192849
-0.0203565
-0.0211524
-1.77434e-06
-0.00485468
-0.00358123
0.000810167
-0.00551412
-0.00866807
-0.00360759
-0.00435908
-0.00795983
-0.00885495
-0.00786426
-0.0113335
-0.013449
-0.0134146
-0.0161789
-0.0170504
-0.019053
-0.0192987
-0.0203706
-0.0211597
-5.84546e-06
-0.00486513
-0.00359878
0.000714982
-0.0054574
-0.00860361
-0.00369666
-0.0043878
-0.0079735
-0.00890862
-0.00788767
-0.0113881
-0.0134009
-0.0134945
-0.0161001
-0.0170496
-0.0190143
-0.0193062
-0.0203986
-0.0211594
-1.05123e-05
-0.00487643
-0.00362056
0.000604478
-0.00539792
-0.00854009
-0.00379565
-0.00441972
-0.00798855
-0.00896565
-0.0079113
-0.0114454
-0.0133544
-0.0135724
-0.0160238
-0.0170437
-0.0189795
-0.0193117
-0.0204314
-0.0211538
-1.55816e-05
-0.00488855
-0.00364603
0.000481288
-0.00533657
-0.00847793
-0.00390119
-0.004455
-0.00800414
-0.00902393
-0.00793364
-0.0115027
-0.0133107
-0.0136464
-0.015952
-0.0170301
-0.0189537
-0.0193119
-0.0204631
-0.0211551
-2.10007e-05
-0.00490154
-0.00367466
0.000347904
-0.00527356
-0.00841629
-0.00401093
-0.00449371
-0.00801937
-0.009082
-0.00795456
-0.011558
-0.0132705
-0.0137149
-0.0158859
-0.0170086
-0.0189374
-0.0193031
-0.0204948
-0.0211708
-2.68479e-05
-0.00491557
-0.00370598
0.000206401
-0.00520902
-0.00835431
-0.00412349
-0.00453547
-0.0080338
-0.00913931
-0.00797464
-0.01161
-0.013234
-0.0137764
-0.0158273
-0.0169782
-0.0189293
-0.0192875
-0.0205263
-0.0212009
-3.33024e-05
-0.00493083
-0.00373958
5.83694e-05
-0.00514335
-0.00829152
-0.00423815
-0.00457976
-0.00804769
-0.00919582
-0.00799462
-0.0116587
-0.0132021
-0.0138291
-0.0157777
-0.0169374
-0.0189286
-0.0192688
-0.0205527
-0.0212455
-4.05967e-05
-0.00494751
-0.00377505
-9.49469e-05
-0.00507732
-0.00822773
-0.00435462
-0.00462623
-0.00806185
-0.00925169
-0.00801519
-0.0117047
-0.0131755
-0.013872
-0.0157381
-0.0168857
-0.0189348
-0.0192507
-0.0205678
-0.0213051
-4.89608e-05
-0.0049658
-0.00381208
-0.00025247
-0.0050118
-0.00816289
-0.00447292
-0.00467468
-0.0080772
-0.0093071
-0.00803688
-0.0117483
-0.0131552
-0.0139038
-0.0157097
-0.0168241
-0.0189456
-0.0192378
-0.0205664
-0.0213781
-5.85947e-05
-0.00498575
-0.0038504
-0.000413219
-0.00494772
-0.00809717
-0.00459328
-0.00472487
-0.00809452
-0.00936236
-0.00806004
-0.01179
-0.0131423
-0.0139234
-0.0156929
-0.0167547
-0.0189575
-0.0192356
-0.0205449
-0.0214597
-6.9658e-05
-0.00500737
-0.00388986
-0.000576329
-0.00488593
-0.00803082
-0.00471593
-0.00477647
-0.00811443
-0.00941789
-0.00808491
-0.0118291
-0.0131384
-0.0139298
-0.0156875
-0.0166812
-0.0189658
-0.0192491
-0.0205027
-0.0215433
-8.22676e-05
-0.00503055
-0.00393045
-0.000741063
-0.00482714
-0.00796403
-0.00484101
-0.00482926
-0.0081374
-0.00947417
-0.00811181
-0.0118649
-0.0131447
-0.0139178
-0.0156928
-0.0166075
-0.018965
-0.0192821
-0.0204422
-0.0216204
-9.6529e-05
-0.00505512
-0.00397229
-0.000906818
-0.00477196
-0.00789688
-0.00496871
-0.00488306
-0.00816368
-0.00953157
-0.00814107
-0.0118966
-0.0131624
-0.0138975
-0.0157061
-0.0165379
-0.0189504
-0.019336
-0.0203682
-0.021681
-0.000112568
-0.00508089
-0.0040156
-0.00107309
-0.00472088
-0.00782938
-0.00509911
-0.00493776
-0.00819328
-0.00959039
-0.00817285
-0.0119237
-0.0131926
-0.0138661
-0.0157233
-0.0164771
-0.0189187
-0.0194091
-0.0202865
-0.0217153
-0.000130551
-0.00510757
-0.00406073
-0.00123947
-0.00467433
-0.00776152
-0.00523224
-0.00499329
-0.00822611
-0.00965086
-0.0082071
-0.0119461
-0.0132357
-0.0138253
-0.0157402
-0.0164294
-0.0188682
-0.0194967
-0.0202045
-0.0217148
-0.000150704
-0.0051349
-0.00410807
-0.00140559
-0.00463275
-0.0076932
-0.00536813
-0.00504963
-0.00826184
-0.00971351
-0.00824372
-0.0119633
-0.0132915
-0.0137772
-0.0157529
-0.0163978
-0.0187984
-0.0195934
-0.0201308
-0.0216735
-0.000173301
-0.00516257
-0.00415807
-0.00157108
-0.00459664
-0.00762427
-0.0055068
-0.00510702
-0.00829982
-0.00977901
-0.00828262
-0.0119751
-0.0133594
-0.0137234
-0.0157583
-0.0163849
-0.0187099
-0.0196927
-0.0200738
-0.021589
-0.000198654
-0.00519024
-0.00421119
-0.00173554
-0.00456656
-0.00755465
-0.00564817
-0.0051658
-0.00833933
-0.00984802
-0.00832379
-0.011981
-0.013439
-0.013666
-0.015753
-0.0163922
-0.0186052
-0.019787
-0.0200406
-0.0214631
-0.000227119
-0.00521757
-0.00426795
-0.00189858
-0.00454305
-0.00748438
-0.00579201
-0.00522641
-0.00837957
-0.00992107
-0.00836716
-0.0119804
-0.013527
-0.0136076
-0.0157338
-0.0164209
-0.0184887
-0.0198671
-0.0200368
-0.0213036
-0.000259085
-0.00524417
-0.00432885
-0.00205978
-0.00452664
-0.00741349
-0.00593809
-0.00528959
-0.00841938
-0.00999807
-0.00841266
-0.0119716
-0.0136253
-0.013552
-0.0156971
-0.0164714
-0.0183666
-0.0199226
-0.0200652
-0.0211246
-0.000294999
-0.00526959
-0.00439443
-0.00221866
-0.00451791
-0.00734212
-0.00608607
-0.00535629
-0.00845739
-0.0100826
-0.00846094
-0.011953
-0.0137389
-0.0135027
-0.0156397
-0.0165425
-0.0182473
-0.0199437
-0.0201239
-0.0209445
-0.000335347
-0.00529336
-0.00446519
-0.0023748
-0.0045174
-0.00727062
-0.00623523
-0.00542734
-0.00849217
-0.0101745
-0.00851335
-0.011923
-0.0138619
-0.0134631
-0.0155585
-0.0166313
-0.0181405
-0.0199224
-0.0202043
-0.0207836
-0.000380649
-0.00531502
-0.00454164
-0.00252783
-0.0045255
-0.00719942
-0.00638463
-0.00550397
-0.00852218
-0.0102742
-0.00857138
-0.0118795
-0.0139933
-0.0134387
-0.0154499
-0.0167314
-0.0180575
-0.0198545
-0.0202912
-0.0206626
-0.000431489
-0.005334
-0.00462433
-0.0026774
-0.00454237
-0.00712924
-0.00653302
-0.00558804
-0.00854597
-0.0103806
-0.00863737
-0.0118205
-0.0141305
-0.0134363
-0.0153121
-0.0168333
-0.0180095
-0.0197428
-0.0203645
-0.0205954
-0.000488481
-0.00534974
-0.00471378
-0.00282328
-0.00456795
-0.00706098
-0.00667881
-0.00568168
-0.00856245
-0.0104921
-0.00871446
-0.0117452
-0.0142681
-0.0134621
-0.0151481
-0.0169254
-0.0180045
-0.0195986
-0.0204021
-0.020583
-0.000552273
-0.00536169
-0.00481036
-0.00296539
-0.00460209
-0.00699576
-0.00681997
-0.00578705
-0.00857128
-0.0106064
-0.00880583
-0.0116536
-0.0144007
-0.013521
-0.0149635
-0.0169943
-0.0180445
-0.0194404
-0.0203843
-0.02061
-0.000623532
-0.00536924
-0.00491444
-0.00310389
-0.00464414
-0.00693522
-0.00695386
-0.00590593
-0.00857323
-0.0107199
-0.00891426
-0.0115469
-0.0145214
-0.0136167
-0.0147673
-0.0170264
-0.0181241
-0.0192898
-0.0203004
-0.0206463
-0.000702923
-0.00537184
-0.00502622
-0.0032391
-0.00469316
-0.00688138
-0.00707783
-0.00603926
-0.00857004
-0.0108289
-0.00904245
-0.0114303
-0.0146225
-0.0137497
-0.0145715
-0.0170104
-0.0182313
-0.0191672
-0.0201557
-0.0206594
-0.000791155
-0.0053693
-0.00514557
-0.00337177
-0.0047477
-0.00683657
-0.0071899
-0.0061867
-0.00856464
-0.010929
-0.00919261
-0.0113086
-0.0146953
-0.0139174
-0.0143893
-0.0169401
-0.0183506
-0.019087
-0.0199696
-0.0206198
-0.000888971
-0.00536036
-0.00527222
-0.0035029
-0.00480575
-0.00680375
-0.00728885
-0.00634617
-0.00856076
-0.0110166
-0.0093642
-0.0111893
-0.0147341
-0.0141142
-0.0142343
-0.0168158
-0.0184657
-0.019054
-0.0197666
-0.02051
-0.000997061
-0.00534499
-0.00540551
-0.00363385
-0.00486497
-0.00678574
-0.0073745
-0.0065146
-0.00856266
-0.0110888
-0.00955483
-0.0110804
-0.0147361
-0.0143312
-0.0141179
-0.0166429
-0.0185611
-0.0190649
-0.0195686
-0.0203323
-0.00111603
-0.00532304
-0.00554449
-0.00376668
-0.00492235
-0.00678408
-0.00744845
-0.00668781
-0.0085745
-0.0111451
-0.0097603
-0.0109895
-0.0146987
-0.0145574
-0.0140477
-0.0164299
-0.0186232
-0.0191127
-0.0193904
-0.0201041
-0.00124643
-0.0052944
-0.00568797
-0.00390262
-0.00497476
-0.00679925
-0.00751419
-0.00686064
-0.00859867
-0.0111877
-0.00997477
-0.0109219
-0.0146252
-0.0147814
-0.0140285
-0.0161883
-0.018639
-0.019189
-0.0192416
-0.0198462
-0.0013888
-0.00525944
-0.0058339
-0.00404697
-0.00502009
-0.0068301
-0.00757684
-0.00702797
-0.00863619
-0.0112197
-0.0101917
-0.0108801
-0.0145224
-0.0149934
-0.0140623
-0.015932
-0.0185963
-0.0192851
-0.0191311
-0.0195731
-0.00154348
-0.00521878
-0.00598008
-0.00420223
-0.0050578
-0.00687389
-0.00764192
-0.00718584
-0.00868657
-0.0112456
-0.0104066
-0.0108653
-0.0143964
-0.0151852
-0.0141468
-0.0156776
-0.0184866
-0.0193873
-0.0190686
-0.0192953
-0.0017106
-0.00517329
-0.00612338
-0.00437141
-0.00508839
-0.0069267
-0.00771452
-0.00733241
-0.00874641
-0.01127
-0.0106186
-0.0108755
-0.0142518
-0.0153498
-0.0142771
-0.015443
-0.0183068
-0.0194731
-0.019063
-0.0190306
-0.00189027
-0.00512437
-0.00625976
-0.00455656
-0.0051136
-0.00698341
-0.0077995
-0.00746836
-0.00880996
-0.0112961
-0.0108271
-0.0109098
-0.0140931
-0.0154816
-0.0144472
-0.0152436
-0.018061
-0.0195162
-0.0191141
-0.0188054
-0.00208234
-0.0050741
-0.00638474
-0.00475881
-0.00513688
-0.00703794
-0.0079002
-0.00759676
-0.0088704
-0.0113239
-0.0110345
-0.0109694
-0.0139248
-0.0155753
-0.0146489
-0.0150917
-0.0177619
-0.0194943
-0.0192046
-0.0186477
-0.00228647
-0.00502494
-0.00649439
-0.00497837
-0.00516287
-0.00708411
-0.00801748
-0.00772382
-0.00892208
-0.0113511
-0.0112445
-0.0110564
-0.0137512
-0.015626
-0.0148707
-0.0149959
-0.0174295
-0.0193929
-0.0193052
-0.0185744
-0.00250195
-0.00497962
-0.00658564
-0.00521451
-0.00519725
-0.00711628
-0.00814931
-0.00785875
-0.00896326
-0.0113711
-0.0114572
-0.0111746
-0.0135787
-0.015628
-0.0150973
-0.0149621
-0.0170878
-0.0192072
-0.0193827
-0.0185826
-0.00272775
-0.0049411
-0.00665598
-0.005465
-0.00524685
-0.00713118
-0.00829115
-0.0080112
-0.00899664
-0.011375
-0.0116686
-0.0113271
-0.0134159
-0.0155766
-0.0153119
-0.0149915
-0.0167611
-0.0189439
-0.0194085
-0.0186476
-0.00296246
-0.00491253
-0.00670322
-0.00572631
-0.00531897
-0.0071283
-0.00843515
-0.00818712
-0.00902877
-0.0113562
-0.0118717
-0.0115127
-0.0132737
-0.0154725
-0.0154975
-0.0150771
-0.0164727
-0.018622
-0.0193637
-0.0187307
-0.00320422
-0.00489718
-0.00672662
-0.00599278
-0.00542081
-0.00711023
-0.0085715
-0.00838709
-0.00906942
-0.0113134
-0.0120552
-0.0117252
-0.0131627
-0.0153236
-0.0156387
-0.0152043
-0.0162414
-0.0182672
-0.0192418
-0.0187958
-0.00345082
-0.00489807
-0.00672785
-0.00625688
-0.00555856
-0.00708385
-0.0086896
-0.00860724
-0.00912992
-0.0112505
-0.0122064
-0.0119543
-0.0130922
-0.015144
-0.0157242
-0.0153546
-0.0160785
-0.0179055
-0.0190481
-0.0188175
-0.0036996
-0.00491787
-0.00670973
-0.00651017
-0.0057351
-0.00705951
-0.00878089
-0.00884005
-0.00921919
-0.0111754
-0.0123165
-0.0121873
-0.0130672
-0.014951
-0.0157485
-0.015507
-0.0159858
-0.0175615
-0.0187952
-0.0187835
-0.00394773
-0.00495858
-0.00667757
-0.00674427
-0.00594952
-0.00704994
-0.00884229
-0.00907452
-0.00934016
-0.0110982
-0.0123822
-0.0124105
-0.0130866
-0.0147626
-0.0157131
-0.0156395
-0.0159545
-0.0172588
-0.0185015
-0.0186905
-0.00419266
-0.00502123
-0.00663835
-0.00695297
-0.00619708
-0.00706717
-0.00887583
-0.00929831
-0.00949053
-0.0110298
-0.0124052
-0.0126115
-0.0131444
-0.0145944
-0.0156285
-0.0157332
-0.0159643
-0.0170139
-0.01819
-0.0185398
-0.00443245
-0.00510592
-0.00659975
-0.0071325
-0.00646806
-0.00712022
-0.00888745
-0.00950062
-0.00966453
-0.0109807
-0.0123908
-0.0127793
-0.0132306
-0.014458
-0.0155105
-0.0157787
-0.0159901
-0.01683
-0.0178877
-0.0183397
-0.00466542
-0.00521093
-0.00656961
-0.00728251
-0.00675074
-0.00721423
-0.00888891
-0.00967456
-0.00985297
-0.0109572
-0.0123482
-0.0129067
-0.0133324
-0.0143582
-0.015375
-0.015776
-0.01601
-0.0166936
-0.0176163
-0.0181063
-0.00489111
-0.0053341
-0.00655282
-0.00740314
-0.00703403
-0.00735014
-0.00889481
-0.00981873
-0.0100448
-0.0109607
-0.0122883
-0.0129915
-0.0134367
-0.0142964
-0.0152383
-0.0157321
-0.0160097
-0.0165841
-0.0173832
-0.017863
-0.00510884
-0.00547432
-0.00655391
-0.00749636
-0.00730851
-0.00752515
-0.00891386
-0.0099349
-0.0102315
-0.0109887
-0.0122203
-0.0130348
-0.0135314
-0.0142684
-0.015115
-0.0156586
-0.0159844
-0.0164848
-0.0171797
-0.0176302
-0.005317
-0.00562902
-0.00657839
-0.00757085
-0.00757034
-0.0077306
-0.00895015
-0.0100264
-0.0104063
-0.0110377
-0.012152
-0.0130398
-0.0136062
-0.0142644
-0.0150134
-0.0155675
-0.0159357
-0.0163866
-0.016991
-0.017413
-0.0055151
-0.00578279
-0.00662839
-0.00765061
-0.00781738
-0.00795305
-0.00900593
-0.0100984
-0.0105643
-0.0111049
-0.012091
-0.0130118
-0.0136538
-0.0142731
-0.0149362
-0.0154716
-0.0158677
-0.0162886
-0.0168112
-0.0172035
-0.00570777
-0.00595051
-0.00670265
-0.00772429
-0.00804046
-0.00818117
-0.00908001
-0.0101559
-0.0107056
-0.0111893
-0.0120455
-0.0129594
-0.013668
-0.0142826
-0.0148816
-0.0153816
-0.0157847
-0.0161896
-0.0166423
-0.0169937
-0.00589708
-0.0061235
-0.00679802
-0.00779579
-0.00823985
-0.00841058
-0.0091728
-0.0102042
-0.0108303
-0.0112887
-0.0120219
-0.0128925
-0.0136472
-0.0142809
-0.0148431
-0.0153064
-0.0156947
-0.016086
-0.0164864
-0.016787
-0.00608422
-0.00630036
-0.00690931
-0.00786973
-0.00841954
-0.0086379
-0.0092851
-0.0102487
-0.0109358
-0.0113957
-0.0120219
-0.0128208
-0.0135948
-0.0142559
-0.0148083
-0.0152467
-0.0156079
-0.015976
-0.0163403
-0.0165915
-0.00627009
-0.00648017
-0.00703676
-0.00795056
-0.00858099
-0.00885732
-0.00941341
-0.0102935
-0.0110173
-0.0115
-0.0120458
-0.0127557
-0.0135187
-0.0142035
-0.0147636
-0.0151953
-0.0155351
-0.0158666
-0.0161985
-0.0164102
-0.00645587
-0.00666472
-0.00717636
-0.00803761
-0.00872578
-0.00906528
-0.00955469
-0.010343
-0.0110769
-0.0115937
-0.0120897
-0.0127089
-0.0134304
-0.0141262
-0.014701
-0.0151402
-0.0154751
-0.0157684
-0.0160594
-0.0162396
-0.00664088
-0.0068463
-0.00732789
-0.00813542
-0.00885848
-0.0092607
-0.00970544
-0.0104005
-0.0111195
-0.0116678
-0.0121418
-0.0126841
-0.0133407
-0.0140273
-0.0146173
-0.0150687
-0.0154139
-0.0156857
-0.0159304
-0.016079
-0.00682649
-0.00703183
-0.00748797
-0.00824389
-0.00898159
-0.00943994
-0.0098598
-0.0104679
-0.0111514
-0.0117203
-0.012192
-0.0126794
-0.0132634
-0.0139144
-0.0145132
-0.0149765
-0.0153358
-0.0156065
-0.0158132
-0.0159274
-0.00701302
-0.00721419
-0.00765501
-0.00836359
-0.00909916
-0.00960326
-0.0100138
-0.010546
-0.0111774
-0.0117503
-0.012228
-0.0126819
-0.013205
-0.0138032
-0.0143957
-0.0148719
-0.0152389
-0.0155176
-0.0157011
-0.0157785
-0.0072014
-0.00740061
-0.00782578
-0.00849313
-0.00921335
-0.00975009
-0.0101622
-0.0106346
-0.0112076
-0.0117668
-0.0122446
-0.0126772
-0.0131516
-0.0136956
-0.0142654
-0.014755
-0.0151323
-0.0154196
-0.0155959
-0.0156396
-0.00739088
-0.00758324
-0.00799913
-0.00863323
-0.00932998
-0.00988473
-0.0103012
-0.0107268
-0.0112423
-0.0117745
-0.0122478
-0.0126663
-0.0130984
-0.0135877
-0.0141186
-0.0146111
-0.0150081
-0.0153093
-0.0154951
-0.0155222
-0.00758294
-0.00776733
-0.00817316
-0.00877987
-0.00944957
-0.0100103
-0.0104304
-0.0108188
-0.0112789
-0.0117731
-0.0122344
-0.0126469
-0.0130482
-0.0134866
-0.0139678
-0.014439
-0.0148486
-0.0151673
-0.0153726
-0.0154055
-0.00777788
-0.0079579
-0.00834743
-0.00893029
-0.00957212
-0.0101287
-0.0105509
-0.0109126
-0.0113215
-0.0117684
-0.0122025
-0.0126033
-0.0129843
-0.0133829
-0.0138203
-0.0142567
-0.0146574
-0.0149849
-0.015208
-0.0152615
-0.00797234
-0.0081418
-0.00852259
-0.00908699
-0.00970264
-0.0102453
-0.0106622
-0.0110039
-0.0113701
-0.0117662
-0.0121635
-0.0125414
-0.012898
-0.0132593
-0.013657
-0.0140618
-0.0144432
-0.0147698
-0.0149988
-0.0150673
-0.00816973
-0.00833128
-0.00869792
-0.00924383
-0.00983549
-0.0103598
-0.0107677
-0.0110937
-0.0114232
-0.0117669
-0.0121188
-0.0124641
-0.0127902
-0.01311
-0.0134643
-0.0138402
-0.0142016
-0.0145196
-0.0147495
-0.0148247
-0.00837073
-0.00852672
-0.00887539
-0.0094002
-0.00996897
-0.0104711
-0.0108692
-0.0111868
-0.0114867
-0.0117766
-0.0120694
-0.0123617
-0.0126409
-0.0129139
-0.0132232
-0.0135699
-0.0139207
-0.01424
-0.0144782
-0.0145715
-0.00856991
-0.00872063
-0.00905976
-0.00956492
-0.0101086
-0.0105821
-0.0109634
-0.0112779
-0.0115681
-0.0118202
-0.0120457
-0.0122446
-0.0124271
-0.0126063
-0.0128192
-0.0130865
-0.0134012
-0.0137431
-0.0140816
-0.0143461
-0.0087671
-0.00891593
-0.00924752
-0.00973382
-0.0102523
-0.0107016
-0.0110595
-0.0113644
-0.0116807
-0.0119823
-0.0122132
-0.0123206
-0.0123657
-0.012419
-0.0125059
-0.012601
-0.0126269
-0.0125488
-0.0124043
-0.0122762
-0.00897726
-0.00910132
-0.0094059
-0.00986112
-0.0103666
-0.0108314
-0.0111838
-0.0113957
-0.011562
-0.011728
-0.0119087
-0.0120754
-0.0122121
-0.0122961
-0.0123301
-0.0123327
-0.0123142
-0.0123017
-0.0123351
-0.0124616
-0.00925783
-0.00940444
-0.00961262
-0.00995336
-0.0103612
-0.0107312
-0.0110376
-0.0112886
-0.011515
-0.0117344
-0.011963
-0.0121573
-0.0123068
-0.0123879
-0.0123908
-0.0123479
-0.0122564
-0.012102
-0.01192
-0.0118031
-0.00937176
-0.00944239
-0.00966084
-0.0100099
-0.0103965
-0.0107407
-0.0110371
-0.0112992
-0.0115333
-0.0117318
-0.0119121
-0.0120407
-0.0121178
-0.0121847
-0.0122679
-0.0124243
-0.0127084
-0.0131031
-0.0135492
-0.0139475
-0.00960927
-0.00971179
-0.00984477
-0.0100901
-0.0104043
-0.0107147
-0.0110103
-0.0112799
-0.01153
-0.0117492
-0.0119428
-0.0120968
-0.0121857
-0.0122111
-0.0121841
-0.012092
-0.0119501
-0.0117807
-0.0116409
-0.0116168
-0.00974897
-0.00982876
-0.00993329
-0.0101318
-0.0104043
-0.0106998
-0.0109969
-0.0112728
-0.0115298
-0.0117687
-0.0119723
-0.0121212
-0.0122038
-0.0121991
-0.0121456
-0.0120788
-0.0120451
-0.0120663
-0.0121545
-0.012347
-0.0220372
-0.023049
-0.027297
-0.0310482
-0.0312401
-0.029398
-0.02716
-0.025018
-0.02316
-0.0217527
-0.0208164
-0.0202
-0.0197894
-0.019456
-0.0189721
-0.0183281
-0.0177371
-0.0172939
-0.0169605
-0.0166723
-0.0163368
-0.0159659
-0.0156811
-0.0154864
-0.0152324
-0.0148563
-0.0144483
-0.0141046
-0.0138262
-0.0135244
-0.0131609
-0.0128255
-0.0125668
-0.0123212
-0.0120056
-0.0116168
-0.0112293
-0.0109239
-0.0107608
-0.0107647
-0.0108321
-0.0107574
-0.0104436
-0.00994203
-0.009389
-0.00893571
-0.00860071
-0.00827118
-0.00794124
-0.00766625
-0.00745616
-0.00721424
-0.00687714
-0.00646627
-0.00603772
-0.00562007
-0.00521804
-0.00482418
-0.00443265
-0.00403066
-0.00359954
-0.00317279
-0.00276604
-0.00234308
-0.00190435
-0.00147968
-0.00101326
-0.000486057
3.27957e-05
0.000548562
0.00106142
0.00158874
0.00210886
0.00265704
0.00320605
0.00376115
0.00433137
0.00492143
0.00555618
0.00617068
0.00675484
0.00733997
0.00798422
0.0086212
0.00930724
0.00997327
0.0106699
0.0113463
0.0120584
0.0127935
0.0135109
0.0142865
0.0150214
0.015844
0.016632
0.0174371
0.0183358
0.0192194
0.0201097
0.0210863
-0.0220026
-0.0230837
-0.0271764
-0.0309025
-0.0311699
-0.0293686
-0.0271432
-0.0250068
-0.0231511
-0.0217444
-0.0208082
-0.0201919
-0.0197823
-0.0194504
-0.0189678
-0.0183243
-0.0177334
-0.0172906
-0.0169575
-0.0166698
-0.0163346
-0.0159636
-0.0156788
-0.0154844
-0.0152306
-0.0148546
-0.0144465
-0.0141028
-0.0138244
-0.0135228
-0.0131593
-0.0128239
-0.0125653
-0.0123199
-0.0120044
-0.0116157
-0.0112282
-0.0109227
-0.0107596
-0.0107636
-0.0108313
-0.0107567
-0.010443
-0.00994148
-0.0093884
-0.0089351
-0.00860017
-0.0082707
-0.00794075
-0.00766575
-0.00745571
-0.00721386
-0.0068768
-0.00646593
-0.00603738
-0.00561974
-0.00521772
-0.00482388
-0.00443236
-0.00403039
-0.00359928
-0.00317252
-0.00276578
-0.00234284
-0.00190411
-0.00147945
-0.00101305
-0.00048585
3.30095e-05
0.000548769
0.00106162
0.00158893
0.00210905
0.00265722
0.00320623
0.00376132
0.00433153
0.00492158
0.00555633
0.00617083
0.00675499
0.0073401
0.00798435
0.00862133
0.00930736
0.00997338
0.01067
0.0113464
0.0120585
0.0127936
0.013511
0.0142866
0.0150215
0.0158441
0.0166321
0.0174372
0.0183359
0.0192195
0.0201098
0.0210864
-0.0221022
-0.0232223
-0.0269961
-0.0306331
-0.031037
-0.0293181
-0.0271157
-0.0249882
-0.0231389
-0.0217366
-0.0208026
-0.0201861
-0.0197754
-0.0194436
-0.018962
-0.0183196
-0.0177295
-0.0172871
-0.0169543
-0.0166671
-0.0163324
-0.0159616
-0.0156769
-0.0154827
-0.0152292
-0.0148532
-0.014445
-0.0141012
-0.013823
-0.0135214
-0.0131579
-0.0128225
-0.012564
-0.0123187
-0.0120033
-0.0116146
-0.0112271
-0.0109216
-0.0107584
-0.0107626
-0.0108306
-0.0107564
-0.0104427
-0.00994099
-0.00938778
-0.00893447
-0.00859967
-0.00827027
-0.00794028
-0.00766528
-0.00745532
-0.00721359
-0.00687654
-0.00646564
-0.00603707
-0.00561943
-0.00521743
-0.00482361
-0.0044321
-0.00403015
-0.00359904
-0.00317228
-0.00276556
-0.00234263
-0.00190389
-0.00147926
-0.00101289
-0.000485668
3.31996e-05
0.000548951
0.00106179
0.0015891
0.00210921
0.00265738
0.00320639
0.00376147
0.00433167
0.0049217
0.00555647
0.00617098
0.00675512
0.00734021
0.00798446
0.00862144
0.00930746
0.00997349
0.0106701
0.0113465
0.0120585
0.0127937
0.0135111
0.0142867
0.0150216
0.0158442
0.0166322
0.0174373
0.0183359
0.0192196
0.0201099
0.0210866
-0.0222466
-0.0233679
-0.0267588
-0.0302625
-0.0308307
-0.0292326
-0.027068
-0.0249562
-0.0231192
-0.0217268
-0.0207983
-0.0201822
-0.0197685
-0.0194341
-0.0189529
-0.0183129
-0.0177247
-0.0172827
-0.0169497
-0.016663
-0.0163294
-0.0159595
-0.015675
-0.0154807
-0.0152274
-0.0148517
-0.0144438
-0.0141
-0.0138215
-0.0135199
-0.0131565
-0.0128213
-0.0125628
-0.0123175
-0.0120021
-0.0116134
-0.0112259
-0.0109202
-0.010757
-0.0107614
-0.01083
-0.0107562
-0.0104424
-0.00994041
-0.00938701
-0.00893373
-0.00859911
-0.00826978
-0.00793975
-0.00766476
-0.00745493
-0.00721334
-0.00687631
-0.00646534
-0.00603673
-0.0056191
-0.00521713
-0.00482333
-0.00443184
-0.00402992
-0.0035988
-0.00317203
-0.00276533
-0.00234242
-0.00190368
-0.00147907
-0.00101274
-0.000485482
3.33951e-05
0.000549136
0.00106197
0.00158928
0.00210937
0.00265754
0.00320655
0.00376161
0.00433181
0.00492183
0.00555661
0.00617114
0.00675526
0.00734032
0.00798458
0.00862154
0.00930757
0.00997359
0.0106702
0.0113465
0.0120586
0.0127938
0.0135112
0.0142868
0.0150217
0.0158442
0.0166323
0.0174373
0.018336
0.0192197
0.0201101
0.021087
-0.0223808
-0.0234792
-0.0264869
-0.0298495
-0.0305865
-0.0291268
-0.027007
-0.0249133
-0.0230923
-0.0217137
-0.0207938
-0.0201794
-0.0197613
-0.0194214
-0.0189395
-0.0183035
-0.0177191
-0.0172775
-0.0169432
-0.0166564
-0.0163249
-0.0159572
-0.0156732
-0.0154782
-0.0152247
-0.0148499
-0.0144428
-0.0140989
-0.0138199
-0.013518
-0.0131551
-0.0128204
-0.0125618
-0.0123161
-0.0120006
-0.0116121
-0.0112246
-0.0109186
-0.0107551
-0.0107598
-0.0108293
-0.0107559
-0.0104419
-0.0099396
-0.00938602
-0.00893282
-0.00859841
-0.00826915
-0.0079391
-0.00766415
-0.00745448
-0.00721307
-0.00687605
-0.00646501
-0.00603633
-0.00561871
-0.00521678
-0.00482301
-0.00443154
-0.00402964
-0.00359853
-0.00317175
-0.00276508
-0.00234219
-0.00190344
-0.00147888
-0.00101258
-0.000485281
3.36052e-05
0.000549335
0.00106216
0.00158946
0.00210954
0.00265771
0.00320673
0.00376177
0.00433196
0.00492196
0.00555676
0.00617132
0.00675541
0.00734043
0.0079847
0.00862166
0.00930768
0.00997371
0.0106703
0.0113467
0.0120587
0.0127939
0.0135113
0.0142869
0.0150218
0.0158443
0.0166324
0.0174374
0.0183361
0.0192198
0.0201102
0.0210874
-0.02248
-0.0235684
-0.0262195
-0.0294261
-0.0303222
-0.0290108
-0.0269402
-0.0248644
-0.0230603
-0.0216978
-0.0207884
-0.0201766
-0.019753
-0.0194057
-0.0189225
-0.018292
-0.0177132
-0.0172723
-0.0169355
-0.0166476
-0.0163186
-0.0159547
-0.0156717
-0.0154752
-0.0152209
-0.0148474
-0.0144419
-0.014098
-0.0138177
-0.0135154
-0.0131536
-0.0128199
-0.0125611
-0.0123146
-0.0119989
-0.0116108
-0.0112233
-0.0109168
-0.0107527
-0.0107578
-0.0108282
-0.0107554
-0.0104412
-0.00993844
-0.00938475
-0.00893172
-0.0085975
-0.00826831
-0.00793828
-0.0076634
-0.00745392
-0.00721271
-0.00687575
-0.00646461
-0.00603586
-0.00561824
-0.00521637
-0.00482264
-0.00443118
-0.00402932
-0.00359822
-0.00317144
-0.0027648
-0.00234192
-0.00190319
-0.00147868
-0.00101241
-0.000485063
3.38287e-05
0.000549548
0.00106237
0.00158966
0.00210973
0.00265789
0.00320692
0.00376194
0.00433212
0.0049221
0.00555693
0.00617151
0.00675557
0.00734054
0.00798483
0.00862178
0.00930781
0.00997384
0.0106705
0.0113468
0.0120588
0.012794
0.0135114
0.014287
0.0150219
0.0158444
0.0166325
0.0174374
0.0183361
0.0192198
0.0201104
0.021088
-0.022547
-0.0236613
-0.025977
-0.0289971
-0.0300367
-0.0288844
-0.0268696
-0.0248116
-0.0230244
-0.021679
-0.0207813
-0.0201727
-0.0197435
-0.019388
-0.0189035
-0.0182796
-0.0177073
-0.0172675
-0.0169274
-0.0166373
-0.016311
-0.0159519
-0.0156704
-0.0154719
-0.0152164
-0.0148445
-0.0144411
-0.0140969
-0.0138145
-0.0135116
-0.0131515
-0.0128197
-0.0125607
-0.012313
-0.0119972
-0.0116098
-0.0112226
-0.0109151
-0.0107499
-0.0107551
-0.0108267
-0.0107544
-0.0104399
-0.00993678
-0.00938318
-0.00893042
-0.00859633
-0.00826717
-0.00793722
-0.00766245
-0.00745317
-0.00721221
-0.00687534
-0.00646412
-0.00603528
-0.00561768
-0.00521588
-0.0048222
-0.00443073
-0.0040289
-0.00359784
-0.00317107
-0.00276446
-0.00234162
-0.00190292
-0.00147846
-0.00101221
-0.000484824
3.40664e-05
0.000549778
0.00106259
0.00158987
0.00210992
0.00265809
0.00320713
0.00376212
0.0043323
0.00492225
0.00555712
0.00617173
0.00675575
0.00734067
0.00798498
0.00862192
0.00930796
0.00997399
0.0106706
0.0113469
0.0120589
0.0127941
0.0135115
0.0142871
0.0150219
0.0158445
0.0166326
0.0174374
0.0183362
0.0192198
0.0201105
0.0210888
-0.0225961
-0.023764
-0.0257555
-0.0285562
-0.0297253
-0.0287462
-0.0267961
-0.0247562
-0.0229849
-0.0216572
-0.0207722
-0.0201673
-0.0197327
-0.019369
-0.0188834
-0.0182665
-0.0177016
-0.0172631
-0.0169193
-0.0166265
-0.0163029
-0.0159491
-0.0156692
-0.0154683
-0.0152115
-0.0148416
-0.0144407
-0.0140957
-0.0138102
-0.0135062
-0.0131485
-0.0128193
-0.0125601
-0.012311
-0.0119951
-0.0116093
-0.0112228
-0.0109142
-0.0107472
-0.010752
-0.0108246
-0.0107529
-0.0104379
-0.00993439
-0.00938124
-0.00892896
-0.00859492
-0.00826574
-0.00793591
-0.00766124
-0.00745213
-0.00721145
-0.00687475
-0.00646346
-0.00603454
-0.00561699
-0.0052153
-0.00482166
-0.00443016
-0.00402836
-0.00359735
-0.00317061
-0.00276403
-0.00234124
-0.0019026
-0.0014782
-0.00101196
-0.000484558
3.4324e-05
0.000550031
0.00106283
0.00159009
0.00211013
0.00265831
0.00320735
0.00376231
0.00433249
0.00492242
0.00555732
0.00617197
0.00675595
0.00734082
0.00798514
0.00862208
0.00930813
0.00997415
0.0106708
0.011347
0.012059
0.0127943
0.0135116
0.0142872
0.015022
0.0158446
0.0166326
0.0174375
0.0183362
0.0192197
0.0201106
0.0210897
-0.0226306
-0.0238622
-0.0255469
-0.0281041
-0.0293883
-0.028596
-0.0267205
-0.0246988
-0.0229422
-0.0216322
-0.0207606
-0.0201604
-0.0197209
-0.0193491
-0.0188624
-0.018253
-0.0176959
-0.0172589
-0.0169115
-0.0166158
-0.0162948
-0.0159464
-0.0156681
-0.0154645
-0.0152065
-0.0148391
-0.0144409
-0.0140946
-0.0138049
-0.0134992
-0.0131444
-0.0128183
-0.0125591
-0.0123083
-0.0119926
-0.011609
-0.0112241
-0.0109145
-0.0107453
-0.0107491
-0.0108225
-0.010751
-0.010435
-0.00993102
-0.00937871
-0.00892727
-0.00859332
-0.00826414
-0.00793446
-0.00765981
-0.00745074
-0.00721033
-0.00687388
-0.00646258
-0.00603359
-0.00561612
-0.00521458
-0.004821
-0.00442945
-0.00402767
-0.00359674
-0.00317001
-0.00276344
-0.00234075
-0.00190222
-0.00147789
-0.00101166
-0.000484254
3.46103e-05
0.000550321
0.00106311
0.00159034
0.00211036
0.00265854
0.00320757
0.00376251
0.0043327
0.00492261
0.00555755
0.00617224
0.00675617
0.00734098
0.00798533
0.00862226
0.00930833
0.00997435
0.0106709
0.0113472
0.0120592
0.0127944
0.0135117
0.0142874
0.0150221
0.0158447
0.0166327
0.0174375
0.0183363
0.0192196
0.0201106
0.0210909
-0.0226429
-0.0239429
-0.0253538
-0.0276484
-0.0290261
-0.0284309
-0.0266415
-0.0246394
-0.0228961
-0.0216037
-0.0207465
-0.0201518
-0.019708
-0.0193281
-0.0188404
-0.0182389
-0.0176901
-0.017255
-0.0169039
-0.0166051
-0.0162866
-0.0159436
-0.015667
-0.0154607
-0.0152016
-0.0148371
-0.0144418
-0.014094
-0.0137993
-0.0134912
-0.0131393
-0.0128168
-0.0125577
-0.012305
-0.0119895
-0.0116088
-0.0112264
-0.0109162
-0.0107447
-0.0107474
-0.0108211
-0.0107491
-0.0104313
-0.00992652
-0.00937533
-0.00892511
-0.00859145
-0.00826246
-0.00793309
-0.00765838
-0.00744913
-0.00720885
-0.00687266
-0.00646138
-0.00603236
-0.00561501
-0.0052137
-0.0048202
-0.00442857
-0.00402683
-0.00359601
-0.00316925
-0.00276262
-0.00234005
-0.00190171
-0.00147747
-0.00101127
-0.000483906
3.49331e-05
0.000550661
0.00106343
0.00159062
0.00211062
0.00265879
0.00320781
0.0037627
0.00433292
0.00492282
0.00555779
0.00617253
0.00675641
0.00734116
0.00798552
0.00862246
0.00930854
0.00997457
0.0106712
0.0113474
0.0120593
0.0127946
0.0135119
0.0142875