/*--------------------------------*- C++ -*----------------------------------*\
| =========                 |                                                 |
| \\      /  F ield         | OpenFOAM: The Open Source CFD Toolbox           |
|  \\    /   O peration     | Version:  2506                                  |
|   \\  /    A nd           | Website:  www.openfoam.com                      |
|    \\/     M anipulation  |                                                 |
\*---------------------------------------------------------------------------*/
FoamFile
{
    version     2.0;
    format      ascii;
    arch        "LSB;label=32;scalar=64";
    class       surfaceScalarField;
    location    "8.25";
    object      phi;
}
// * * * * * * * * * * * * * * * * * * * * * * * * * * * * * * * * * * * * * //

dimensions      [0 3 -1 0 0 0 0];

oriented        oriented;

internalField   nonuniform List<scalar> 
19000
(
1.18561e-06
1.55957e-06
1.16165e-06
-5.64295e-07
1.2024e-06
4.14044e-07
1.07589e-06
-1.78283e-06
1.16441e-06
1.14443e-06
1.18185e-06
1.2064e-06
1.08327e-06
-4.23728e-07
1.1343e-06
4.43328e-07
1.14241e-06
7.79256e-07
1.10062e-06
-1.98825e-07
1.15222e-06
5.85803e-07
1.11054e-06
-8.08657e-07
1.16335e-06
1.76516e-07
1.11592e-06
-7.05077e-08
1.15259e-06
3.00029e-07
1.13115e-06
4.34552e-07
1.14524e-06
2.78925e-07
1.15387e-06
5.22628e-07
1.15128e-06
3.70507e-07
4.70786e-07
1.14919e-06
1.23767e-06
1.54617e-06
1.21556e-06
-5.42187e-07
1.25474e-06
3.74867e-07
1.12351e-06
-1.6516e-06
1.21557e-06
1.05238e-06
1.24459e-06
1.17737e-06
1.14202e-06
-3.21157e-07
1.19288e-06
3.92462e-07
1.19754e-06
7.746e-07
1.15827e-06
-1.59553e-07
1.20333e-06
5.40743e-07
1.1615e-06
-7.66826e-07
1.21072e-06
1.27291e-07
1.17471e-06
-3.44967e-08
1.19465e-06
2.80093e-07
1.20798e-06
4.21217e-07
1.18628e-06
3.00631e-07
1.23602e-06
4.72884e-07
1.19122e-06
4.15309e-07
4.29309e-07
1.2327e-06
1.29382e-06
1.53513e-06
1.27154e-06
-5.19907e-07
1.30967e-06
3.36728e-07
1.17866e-06
-1.52059e-06
1.26252e-06
9.68514e-07
1.31102e-06
1.12888e-06
1.20874e-06
-2.1888e-07
1.25184e-06
3.49361e-07
1.25519e-06
7.71257e-07
1.22155e-06
-1.25918e-07
1.25924e-06
5.03053e-07
1.22265e-06
-7.30241e-07
1.26051e-06
8.94323e-08
1.24337e-06
-1.73489e-08
1.24286e-06
2.80595e-07
1.27654e-06
3.87543e-07
1.24201e-06
3.35154e-07
1.2842e-06
4.30698e-07
1.26142e-06
4.38085e-07
4.30844e-07
1.25989e-06
1.35325e-06
1.52599e-06
1.33178e-06
-4.98439e-07
1.36694e-06
3.01573e-07
1.2434e-06
-1.39705e-06
1.30879e-06
9.03126e-07
1.37841e-06
1.05925e-06
1.2799e-06
-1.20367e-07
1.3068e-06
3.22462e-07
1.31212e-06
7.65935e-07
1.28849e-06
-1.02285e-07
1.31845e-06
4.73086e-07
1.29157e-06
-7.03357e-07
1.31597e-06
6.50357e-08
1.318e-06
-1.93788e-08
1.3047e-06
2.93896e-07
1.33732e-06
3.54923e-07
1.31368e-06
3.58794e-07
1.33064e-06
4.13734e-07
1.33097e-06
4.37759e-07
4.42958e-07
1.31885e-06
1.41661e-06
1.51773e-06
1.39679e-06
-4.7862e-07
1.42655e-06
2.71812e-07
1.31786e-06
-1.28836e-06
1.35791e-06
8.63082e-07
1.44256e-06
9.74597e-07
1.35425e-06
-3.20501e-08
1.3585e-06
3.1821e-07
1.36852e-06
7.55911e-07
1.35691e-06
-9.06748e-08
1.38119e-06
4.4881e-07
1.3642e-06
-6.86366e-07
1.3788e-06
5.04293e-08
1.39146e-06
-3.20332e-08
1.37976e-06
3.05593e-07
1.40114e-06
3.3354e-07
1.39312e-06
3.66814e-07
1.39499e-06
4.11869e-07
1.40037e-06
4.32375e-07
4.51095e-07
1.39224e-06
1.48435e-06
1.50905e-06
1.46652e-06
-4.6079e-07
1.48866e-06
2.49676e-07
1.39956e-06
-1.19926e-06
1.41431e-06
8.48325e-07
1.50285e-06
8.86057e-07
1.43146e-06
3.9346e-08
1.41354e-06
3.36127e-07
1.42814e-06
7.41311e-07
1.42697e-06
-8.95031e-08
1.44849e-06
4.27289e-07
1.43898e-06
-6.76858e-07
1.44767e-06
4.17394e-08
1.46287e-06
-4.72383e-08
1.45961e-06
3.08859e-07
1.47117e-06
3.21984e-07
1.472e-06
3.65976e-07
1.4693e-06
4.14571e-07
1.47343e-06
4.28245e-07
4.56992e-07
1.46753e-06
1.55663e-06
1.49864e-06
1.54062e-06
-4.44777e-07
1.55375e-06
2.36543e-07
1.48495e-06
-1.13045e-06
1.48125e-06
8.52018e-07
1.56292e-06
8.04388e-07
1.51121e-06
9.10581e-08
1.47861e-06
3.6873e-07
1.49567e-06
7.2425e-07
1.50069e-06
-9.453e-08
1.52149e-06
4.0649e-07
1.51607e-06
-6.7144e-07
1.52062e-06
3.71913e-08
1.53413e-06
-6.07499e-08
1.53842e-06
3.04569e-07
1.54428e-06
3.16125e-07
1.54829e-06
3.61972e-07
1.5441e-06
4.18757e-07
1.54718e-06
4.25163e-07
4.62811e-07
1.54136e-06
1.63329e-06
1.48548e-06
1.61867e-06
-4.30161e-07
1.62259e-06
2.32628e-07
1.5714e-06
-1.07926e-06
1.55917e-06
8.64249e-07
1.62728e-06
7.36276e-07
1.59272e-06
1.2562e-07
1.55579e-06
4.05661e-07
1.5736e-06
7.0644e-07
1.58036e-06
-1.01288e-07
1.60057e-06
3.86271e-07
1.59558e-06
-6.66446e-07
1.59685e-06
3.59209e-08
1.60706e-06
-7.09566e-08
1.61583e-06
2.95796e-07
1.6187e-06
3.13253e-07
1.62371e-06
3.56968e-07
1.61786e-06
4.24603e-07
1.62038e-06
4.22648e-07
4.68514e-07
1.61467e-06
1.71396e-06
1.46909e-06
1.70039e-06
-4.1659e-07
1.69587e-06
2.37141e-07
1.65804e-06
-1.04143e-06
1.64617e-06
8.76119e-07
1.69864e-06
6.83813e-07
1.67562e-06
1.48632e-07
1.64287e-06
4.38411e-07
1.66114e-06
6.88174e-07
1.66688e-06
-1.07032e-07
1.68534e-06
3.67813e-07
1.67755e-06
-6.58658e-07
1.67646e-06
3.70099e-08
1.68273e-06
-7.72181e-08
1.69385e-06
2.84674e-07
1.69501e-06
3.12094e-07
1.7009e-06
3.51077e-07
1.69355e-06
4.31947e-07
1.69569e-06
4.20512e-07
4.73191e-07
1.69101e-06
1.79827e-06
1.44955e-06
1.78561e-06
-4.03928e-07
1.77411e-06
2.48642e-07
1.74547e-06
-1.01279e-06
1.7398e-06
8.81786e-07
1.77766e-06
6.45959e-07
1.76062e-06
1.65671e-07
1.73647e-06
4.6256e-07
1.75561e-06
6.69035e-07
1.75944e-06
-1.10869e-07
1.77495e-06
3.52305e-07
1.76238e-06
-6.46082e-07
1.75982e-06
3.95696e-08
1.76168e-06
-7.90772e-08
1.77431e-06
2.72043e-07
1.7743e-06
3.12105e-07
1.78172e-06
3.43656e-07
1.77405e-06
4.39616e-07
1.77618e-06
4.18381e-07
4.75726e-07
1.77364e-06
1.88596e-06
1.42733e-06
1.87424e-06
-3.92207e-07
1.85756e-06
2.65323e-07
1.83489e-06
-9.9012e-07
1.83816e-06
8.7851e-07
1.86385e-06
6.20275e-07
1.84898e-06
1.8054e-07
1.83421e-06
4.77333e-07
1.8544e-06
6.48846e-07
1.85619e-06
-1.12665e-07
1.86835e-06
3.40145e-07
1.8505e-06
-6.28229e-07
1.84718e-06
4.2885e-08
1.84427e-06
-7.61584e-08
1.85814e-06
2.58165e-07
1.85713e-06
3.13122e-07
1.86661e-06
3.34172e-07
1.86016e-06
4.46068e-07
1.86264e-06
4.15903e-07
4.75075e-07
1.86329e-06
1.97694e-06
1.40323e-06
1.96625e-06
-3.8151e-07
1.9464e-06
2.8517e-07
1.92737e-06
-9.71095e-07
1.93995e-06
8.65933e-07
1.95621e-06
6.04016e-07
1.94173e-06
1.95022e-07
1.93498e-06
4.84083e-07
1.95589e-06
6.27929e-07
1.95539e-06
-1.12159e-07
1.96456e-06
3.30968e-07
1.94209e-06
-6.05751e-07
1.9387e-06
4.62661e-08
1.93092e-06
-6.83772e-08
1.94577e-06
2.43321e-07
1.94368e-06
3.15213e-07
1.95511e-06
3.22736e-07
1.95111e-06
4.5007e-07
1.95392e-06
4.13097e-07
4.7051e-07
1.95848e-06
2.0713e-06
1.37812e-06
2.06167e-06
-3.71872e-07
2.04072e-06
3.06119e-07
2.02355e-06
-9.53932e-07
2.04417e-06
8.45313e-07
2.0536e-06
5.94589e-07
2.03922e-06
2.09405e-07
2.03833e-06
4.84971e-07
2.0594e-06
6.06858e-07
2.05613e-06
-1.08887e-07
2.06304e-06
3.24059e-07
2.03704e-06
-5.79754e-07
2.0344e-06
4.89117e-08
2.02218e-06
-5.61651e-08
2.03759e-06
2.27918e-07
2.03434e-06
3.18464e-07
2.04692e-06
3.10151e-07
2.04605e-06
4.50938e-07
2.04877e-06
4.10379e-07
4.61797e-07
2.05748e-06
2.16933e-06
1.35279e-06
2.16069e-06
-3.63233e-07
2.14053e-06
3.26274e-07
2.12371e-06
-9.37107e-07
2.15018e-06
8.18841e-07
2.15502e-06
5.89752e-07
2.14131e-06
2.23107e-07
2.14413e-06
4.82156e-07
2.16482e-06
5.86162e-07
2.15853e-06
-1.02595e-07
2.16389e-06
3.187e-07
2.13535e-06
-5.51206e-07
2.13427e-06
4.99849e-08
2.11858e-06
-4.04729e-08
2.13425e-06
2.12246e-07
2.13002e-06
3.22692e-07
2.14262e-06
2.97556e-07
2.14517e-06
4.48384e-07
2.14728e-06
4.08271e-07
4.49289e-07
2.15979e-06
2.27147e-06
1.32781e-06
2.26363e-06
-3.55392e-07
2.24577e-06
3.44136e-07
2.228e-06
-9.19338e-07
2.25782e-06
7.89019e-07
2.25983e-06
5.87738e-07
2.24775e-06
2.35189e-07
2.25249e-06
4.77416e-07
2.27244e-06
5.66219e-07
2.2634e-06
-9.35595e-08
2.26783e-06
3.14266e-07
2.23732e-06
-5.20688e-07
2.23846e-06
4.88442e-08
2.22049e-06
-2.25038e-08
2.23643e-06
1.96304e-07
2.23184e-06
3.27283e-07
2.2434e-06
2.85991e-07
2.24953e-06
4.42256e-07
2.25075e-06
4.07049e-07
4.33975e-07
2.26607e-06
2.37828e-06
1.3034e-06
2.37087e-06
-3.47983e-07
2.35629e-06
3.58715e-07
2.33661e-06
-8.99654e-07
2.36749e-06
7.5814e-07
2.36796e-06
5.8726e-07
2.35843e-06
2.44725e-07
2.36376e-06
4.72087e-07
2.38275e-06
5.4723e-07
2.37174e-06
-8.25496e-08
2.37583e-06
3.10174e-07
2.34362e-06
-4.8848e-07
2.3472e-06
4.52626e-08
2.32802e-06
-3.32539e-09
2.34436e-06
1.79969e-07
2.34033e-06
3.31306e-07
2.35007e-06
2.7625e-07
2.35986e-06
4.3247e-07
2.36026e-06
4.06649e-07
4.17315e-07
2.37692e-06
2.49029e-06
1.27951e-06
2.48281e-06
-3.40508e-07
2.47202e-06
3.69509e-07
2.44977e-06
-8.77404e-07
2.47996e-06
7.27944e-07
2.4798e-06
5.87424e-07
2.47348e-06
2.51047e-07
2.47841e-06
4.67151e-07
2.49643e-06
5.29214e-07
2.48439e-06
-7.05056e-08
2.48872e-06
3.05836e-07
2.45504e-06
-4.54795e-07
2.4608e-06
3.95044e-08
2.44109e-06
1.63781e-08
2.45769e-06
1.63368e-07
2.45516e-06
3.33844e-07
2.46248e-06
2.68925e-07
2.47573e-06
4.19219e-07
2.47562e-06
4.06763e-07
4.0092e-07
2.49201e-06
2.60794e-06
1.25587e-06
2.59985e-06
-3.32425e-07
2.59296e-06
3.76401e-07
2.56776e-06
-8.52202e-07
2.59628e-06
6.99426e-07
2.59604e-06
5.8766e-07
2.59323e-06
2.53856e-07
2.59708e-06
4.63304e-07
2.61427e-06
5.12026e-07
2.60197e-06
-5.82075e-08
2.60706e-06
3.0075e-07
2.57223e-06
-4.19973e-07
2.57953e-06
3.22044e-08
2.5596e-06
3.63071e-08
2.57588e-06
1.47093e-07
2.57544e-06
3.34284e-07
2.57989e-06
2.64478e-07
2.59592e-06
4.03182e-07
2.59578e-06
4.06911e-07
3.86214e-07
2.61048e-06
2.73157e-06
1.23213e-06
2.7224e-06
-3.23255e-07
2.71927e-06
3.79538e-07
2.69093e-06
-8.23867e-07
2.71753e-06
6.72832e-07
2.71748e-06
5.87701e-07
2.71813e-06
2.53211e-07
2.72049e-06
4.60945e-07
2.73708e-06
4.95438e-07
2.72499e-06
-4.61198e-08
2.7311e-06
2.94642e-07
2.69562e-06
-3.84492e-07
2.70369e-06
2.41273e-08
2.68365e-06
5.63469e-08
2.69867e-06
1.32075e-07
2.70057e-06
3.32387e-07
2.70187e-06
2.63176e-07
2.71957e-06
3.85478e-07
2.71998e-06
4.06507e-07
3.74147e-07
2.73205e-06
2.86147e-06
1.20793e-06
2.85086e-06
-3.12649e-07
2.85118e-06
3.79218e-07
2.8197e-06
-7.92382e-07
2.84471e-06
6.47822e-07
2.84485e-06
5.87561e-07
2.84862e-06
2.49443e-07
2.8494e-06
4.60163e-07
2.86559e-06
4.79244e-07
2.85391e-06
-3.44395e-08
2.86099e-06
2.8756e-07
2.82538e-06
-3.48881e-07
2.83358e-06
1.59326e-08
2.81356e-06
7.63637e-08
2.82639e-06
1.19245e-07
2.83059e-06
3.28189e-07
2.82882e-06
2.64949e-07
2.8469e-06
3.67395e-07
2.8485e-06
4.04909e-07
3.65118e-07
2.85753e-06
2.99786e-06
1.18296e-06
2.98559e-06
-3.00376e-07
2.98902e-06
3.75786e-07
2.9545e-06
-7.57857e-07
2.9786e-06
6.23721e-07
2.9787e-06
5.87456e-07
2.98512e-06
2.43029e-07
2.9845e-06
4.60782e-07
3.00039e-06
4.63348e-07
2.9892e-06
-2.32413e-08
2.99693e-06
2.79826e-07
2.96164e-06
-3.13591e-07
2.96952e-06
8.04881e-09
2.94978e-06
9.61113e-08
2.95975e-06
1.09267e-07
2.96609e-06
3.2185e-07
2.9617e-06
2.69345e-07
2.97902e-06
3.50069e-07
2.98242e-06
4.01517e-07
3.59018e-07
2.98852e-06
3.141e-06
1.15696e-06
3.12692e-06
-2.86292e-07
3.13314e-06
3.69564e-07
3.09575e-06
-7.20471e-07
3.11969e-06
5.99786e-07
3.11947e-06
5.87676e-07
3.12801e-06
2.34492e-07
3.12632e-06
4.62464e-07
3.14189e-06
4.47787e-07
3.13124e-06
-1.25937e-08
3.13916e-06
2.71903e-07
3.10449e-06
-2.78921e-07
3.11185e-06
6.87369e-10
3.09273e-06
1.15232e-07
3.09951e-06
1.02485e-07
3.10782e-06
3.1354e-07
3.10157e-06
2.75596e-07
3.11728e-06
3.34364e-07
3.12295e-06
3.95846e-07
3.55347e-07
3.12662e-06
3.29114e-06
1.12974e-06
3.27514e-06
-2.70295e-07
3.2839e-06
3.60801e-07
3.24386e-06
-6.80425e-07
3.26824e-06
5.75397e-07
3.26745e-06
5.88466e-07
3.27762e-06
2.24323e-07
3.27527e-06
4.64812e-07
3.29032e-06
4.32738e-07
3.28036e-06
-2.63243e-09
3.28803e-06
2.64238e-07
3.25412e-06
-2.45009e-07
3.26089e-06
-6.08355e-09
3.24279e-06
1.33328e-07
3.24627e-06
9.90016e-08
3.2564e-06
3.03409e-07
3.2492e-06
2.82803e-07
3.26271e-06
3.20853e-07
3.27092e-06
3.87633e-07
3.53319e-07
3.27295e-06
3.44854e-06
1.10113e-06
3.43055e-06
-2.5231e-07
3.44168e-06
3.49678e-07
3.39916e-06
-6.37905e-07
3.42442e-06
5.5013e-07
3.42292e-06
5.89971e-07
3.43428e-06
2.12963e-07
3.43167e-06
4.67418e-07
3.44592e-06
4.18488e-07
3.43686e-06
6.43023e-09
3.44391e-06
2.57195e-07
3.41077e-06
-2.11876e-07
3.41696e-06
-1.22707e-08
3.40025e-06
1.50034e-07
3.40047e-06
9.87849e-08
3.41226e-06
2.9162e-07
3.40497e-06
2.90091e-07
3.41593e-06
3.09894e-07
3.42669e-06
3.76874e-07
3.52011e-07
3.428e-06
3.6135e-06
1.07104e-06
3.59347e-06
-2.32282e-07
3.60683e-06
3.36319e-07
3.56202e-06
-5.93088e-07
3.58838e-06
5.23766e-07
3.58613e-06
5.92219e-07
3.59827e-06
2.0082e-07
3.59585e-06
4.69847e-07
3.60892e-06
4.0541e-07
3.601e-06
1.43483e-08
3.60721e-06
2.50987e-07
3.57478e-06
-1.79446e-07
3.58042e-06
-1.79057e-08
3.56541e-06
1.65038e-07
3.56246e-06
1.01736e-07
3.57568e-06
2.784e-07
3.56908e-06
2.96695e-07
3.57734e-06
3.01633e-07
3.5903e-06
3.63915e-07
3.50394e-07
3.59192e-06
3.78633e-06
1.03941e-06
3.76425e-06
-2.10194e-07
3.77974e-06
3.20823e-07
3.7328e-06
-5.46147e-07
3.76031e-06
4.96256e-07
3.7574e-06
5.95131e-07
3.76991e-06
1.88304e-07
3.76813e-06
4.71632e-07
3.77964e-06
3.93903e-07
3.77308e-06
2.09066e-08
3.7784e-06
2.45666e-07
3.74652e-06
-1.47566e-07
3.75163e-06
-2.30196e-08
3.7386e-06
1.78067e-07
3.73261e-06
1.07729e-07
3.74691e-06
2.64104e-07
3.7417e-06
3.01899e-07
3.74722e-06
2.96112e-07
3.76174e-06
3.49393e-07
3.47454e-07
3.76468e-06
3.96737e-06
1.00623e-06
3.94324e-06
-1.86066e-07
3.96078e-06
3.03281e-07
3.91191e-06
-4.97273e-07
3.94047e-06
4.67688e-07
3.93707e-06
5.98536e-07
3.94952e-06
1.7585e-07
3.9489e-06
4.72257e-07
3.95844e-06
3.84359e-07
3.95338e-06
2.59723e-08
3.95794e-06
2.41106e-07
3.9264e-06
-1.16026e-07
3.93094e-06
-2.75583e-08
3.92019e-06
1.88808e-07
3.91127e-06
1.16652e-07
3.92617e-06
2.49204e-07
3.923e-06
3.05071e-07
3.92594e-06
2.93172e-07
3.94107e-06
3.34264e-07
3.42321e-07
3.9462e-06
4.15695e-06
9.71529e-07
4.13085e-06
-1.59962e-07
4.15034e-06
2.83793e-07
4.09975e-06
-4.46688e-07
4.12918e-06
4.38264e-07
4.12555e-06
6.02164e-07
4.13745e-06
1.63948e-07
4.13856e-06
4.71151e-07
4.14577e-06
3.77143e-07
4.14221e-06
2.95334e-08
4.14628e-06
2.37033e-07
4.11487e-06
-8.46133e-08
4.11868e-06
-3.13664e-08
4.11054e-06
1.96947e-07
4.09889e-06
1.28305e-07
4.11373e-06
2.34362e-07
4.11317e-06
3.05627e-07
4.1139e-06
2.92449e-07
4.12848e-06
3.19683e-07
3.3441e-07
4.13639e-06
4.35548e-06
9.3535e-07
4.3275e-06
-1.3198e-07
4.34881e-06
2.62479e-07
4.29678e-06
-3.94659e-07
4.32675e-06
4.08302e-07
4.32327e-06
6.05636e-07
4.33407e-06
1.53153e-07
4.3375e-06
4.67724e-07
4.34215e-06
3.72488e-07
4.33988e-06
3.1809e-08
4.34389e-06
2.33014e-07
4.31243e-06
-5.31504e-08
4.31522e-06
-3.41579e-08
4.30996e-06
2.02208e-07
4.29594e-06
1.42326e-07
4.30987e-06
2.20434e-07
4.31234e-06
3.0315e-07
4.31153e-06
2.93264e-07
4.32444e-06
3.06773e-07
3.23713e-07
4.33514e-06
4.56336e-06
8.97759e-07
4.53363e-06
-1.02244e-07
4.55662e-06
2.39489e-07
4.50347e-06
-3.41514e-07
4.53354e-06
3.78235e-07
4.53073e-06
6.08451e-07
4.53978e-06
1.44099e-07
4.54612e-06
4.61386e-07
4.54813e-06
3.70481e-07
4.54671e-06
3.32291e-08
4.55117e-06
2.28551e-07
4.5196e-06
-2.158e-08
4.52094e-06
-3.54984e-08
4.51877e-06
2.04377e-07
4.50293e-06
1.58162e-07
4.51491e-06
2.08464e-07
4.52065e-06
2.97402e-07
4.51921e-06
2.94705e-07
4.52966e-06
2.96331e-07
3.1087e-07
4.5425e-06
4.78105e-06
8.58826e-07
4.74969e-06
-7.08899e-08
4.77417e-06
2.15009e-07
4.72033e-06
-2.8767e-07
4.74995e-06
3.48615e-07
4.7484e-06
6.09996e-07
4.75503e-06
1.37476e-07
4.76473e-06
4.5168e-07
4.76429e-06
3.70922e-07
4.76307e-06
3.44546e-08
4.76849e-06
2.23126e-07
4.73693e-06
9.98395e-09
4.73622e-06
-3.47958e-08
4.73728e-06
2.0332e-07
4.72037e-06
1.75077e-07
4.72948e-06
1.99348e-07
4.73829e-06
2.88588e-07
4.73729e-06
2.95713e-07
4.74502e-06
2.88599e-07
2.97159e-07
4.75873e-06
5.009e-06
8.18625e-07
4.97618e-06
-3.80694e-08
5.0019e-06
1.89284e-07
4.94788e-06
-2.33644e-07
4.97637e-06
3.20121e-07
4.97681e-06
6.09555e-07
4.98027e-06
1.34023e-07
4.99358e-06
4.38365e-07
4.99122e-06
3.73284e-07
4.9894e-06
3.62739e-08
4.9962e-06
2.16323e-07
4.96496e-06
4.12238e-08
4.96159e-06
-3.14248e-08
4.96581e-06
1.991e-07
4.94878e-06
1.92112e-07
4.95441e-06
1.93712e-07
4.96568e-06
2.77323e-07
4.96602e-06
2.95373e-07
4.97137e-06
2.83251e-07
2.84055e-07
4.98447e-06
5.24771e-06
7.77235e-07
5.21359e-06
-3.95614e-09
5.24025e-06
1.62629e-07
5.18668e-06
-1.80077e-07
5.21326e-06
2.93546e-07
5.21647e-06
6.06339e-07
5.21603e-06
1.34472e-07
5.2329e-06
4.2149e-07
5.22948e-06
3.76699e-07
5.22626e-06
3.94989e-08
5.23463e-06
2.07954e-07
5.20428e-06
7.1572e-08
5.19768e-06
-2.48245e-08
5.20476e-06
1.92017e-07
5.18866e-06
2.08217e-07
5.19057e-06
1.91803e-07
5.20328e-06
2.6461e-07
5.20569e-06
2.92967e-07
5.20941e-06
2.79524e-07
2.72797e-07
5.22067e-06
5.49768e-06
7.34748e-07
5.46248e-06
3.12421e-08
5.48967e-06
1.35439e-07
5.43732e-06
-1.27735e-07
5.46109e-06
2.6978e-07
5.4679e-06
5.9953e-07
5.4631e-06
1.39269e-07
5.48302e-06
4.01576e-07
5.47958e-06
3.80135e-07
5.47429e-06
4.47905e-08
5.48415e-06
1.9809e-07
5.45536e-06
1.00361e-07
5.44522e-06
-1.46836e-08
5.45462e-06
1.82621e-07
5.44043e-06
2.22406e-07
5.43871e-06
1.93517e-07
5.45185e-06
2.51478e-07
5.45653e-06
2.88281e-07
5.4596e-06
2.76457e-07
2.63849e-07
5.46855e-06
5.75942e-06
6.91286e-07
5.7234e-06
6.72618e-08
5.75064e-06
1.082e-07
5.7004e-06
-7.74931e-08
5.7204e-06
2.49774e-07
5.73159e-06
5.88341e-07
5.72246e-06
1.48398e-07
5.74434e-06
3.79702e-07
5.74199e-06
3.82485e-07
5.73421e-06
5.25647e-08
5.74519e-06
1.87115e-07
5.71872e-06
1.26827e-07
5.70503e-06
-9.85819e-10
5.71591e-06
1.71741e-07
5.70455e-06
2.33761e-07
5.69959e-06
1.98481e-07
5.71214e-06
2.38926e-07
5.71899e-06
2.8143e-07
5.72219e-06
2.73259e-07
2.56878e-07
5.72916e-06
6.03348e-06
6.46999e-07
5.99697e-06
1.03776e-07
6.02367e-06
8.14936e-08
5.97654e-06
-3.03616e-08
5.99177e-06
2.34547e-07
6.00807e-06
5.72042e-07
5.99505e-06
1.61414e-07
6.01742e-06
3.57337e-07
6.01715e-06
3.82752e-07
6.00681e-06
6.2905e-08
6.01829e-06
1.75634e-07
5.99479e-06
1.50325e-07
5.97794e-06
1.58607e-08
5.98918e-06
1.60508e-07
5.9814e-06
2.41534e-07
5.9739e-06
2.05986e-07
5.98487e-06
2.27954e-07
5.9937e-06
2.72606e-07
5.99742e-06
2.69532e-07
2.51188e-07
6.00311e-06
6.32041e-06
6.0208e-07
6.2838e-06
1.40385e-07
6.3093e-06
5.599e-08
6.26639e-06
1.2551e-08
6.27584e-06
2.25097e-07
6.29747e-06
5.50415e-07
6.28164e-06
1.77245e-07
6.30297e-06
3.36e-07
6.30543e-06
3.80291e-07
6.29289e-06
7.54539e-08
6.30407e-06
1.64447e-07
6.28404e-06
1.70361e-07
6.26471e-06
3.51907e-08
6.27516e-06
1.5005e-07
6.27134e-06
2.45362e-07
6.26221e-06
2.15112e-07
6.27083e-06
2.19335e-07
6.2813e-06
2.62131e-07
6.28574e-06
2.651e-07
2.46175e-07
6.29075e-06
6.62078e-06
5.56765e-07
6.58455e-06
1.76615e-07
6.6081e-06
3.24418e-08
6.57058e-06
5.00695e-08
6.57366e-06
2.22024e-07
6.59984e-06
5.24233e-07
6.58287e-06
1.94212e-07
6.60178e-06
3.17093e-07
6.60728e-06
3.74791e-07
6.59317e-06
8.95639e-08
6.60329e-06
1.54323e-07
6.58697e-06
1.86682e-07
6.5659e-06
5.62595e-08
6.5747e-06
1.41248e-07
6.57471e-06
2.45354e-07
6.56502e-06
2.248e-07
6.57077e-06
2.13583e-07
6.5825e-06
2.50403e-07
6.58773e-06
2.59868e-07
2.4152e-07
6.59239e-06
6.93523e-06
5.1133e-07
6.89991e-06
2.11934e-07
6.92071e-06
1.16372e-08
6.88964e-06
8.11448e-08
6.88635e-06
2.25307e-07
6.9156e-06
4.94989e-07
6.8993e-06
2.10514e-07
6.91475e-06
3.01634e-07
6.92309e-06
3.66461e-07
6.90834e-06
1.04307e-07
6.91676e-06
1.4591e-07
6.90408e-06
1.99354e-07
6.88217e-06
7.8175e-08
6.88862e-06
1.34795e-07
6.89198e-06
2.41991e-07
6.88282e-06
2.33964e-07
6.88555e-06
2.10853e-07
6.8978e-06
2.38157e-07
6.90425e-06
2.53413e-07
2.37208e-07
6.90856e-06
7.26438e-06
4.66088e-07
7.23055e-06
2.45764e-07
7.2478e-06
-5.61919e-09
7.22386e-06
1.05088e-07
7.21487e-06
2.34296e-07
7.24544e-06
4.6442e-07
7.23143e-06
2.24524e-07
7.24289e-06
2.90181e-07
7.25342e-06
3.55929e-07
7.23896e-06
1.18759e-07
7.24533e-06
1.39542e-07
7.23596e-06
2.08723e-07
7.21406e-06
1.00081e-07
7.21776e-06
1.31095e-07
7.22377e-06
2.35975e-07
7.21606e-06
2.41682e-07
7.21609e-06
2.10823e-07
7.22783e-06
2.26414e-07
7.23597e-06
2.45274e-07
2.33197e-07
7.23998e-06
7.60892e-06
4.21389e-07
7.57719e-06
2.77503e-07
7.59012e-06
-1.85538e-08
7.57355e-06
1.21661e-07
7.56006e-06
2.47779e-07
7.59014e-06
4.34343e-07
7.57983e-06
2.34837e-07
7.5872e-06
2.82808e-07
7.59885e-06
3.44277e-07
7.58559e-06
1.32017e-07
7.58988e-06
1.35253e-07
7.58324e-06
2.1536e-07
7.56205e-06
1.21277e-07
7.56303e-06
1.30118e-07
7.57077e-06
2.28232e-07
7.56519e-06
2.47255e-07
7.56323e-06
2.12786e-07
7.57341e-06
2.16235e-07
7.58328e-06
2.35402e-07
2.28907e-07
7.58757e-06
7.96959e-06
3.77615e-07
7.94056e-06
3.06528e-07
7.94852e-06
-2.65155e-08
7.93914e-06
1.31046e-07
7.92272e-06
2.64201e-07
7.95061e-06
4.06445e-07
7.94488e-06
2.40567e-07
7.94862e-06
2.79073e-07
7.96021e-06
3.3269e-07
7.94865e-06
1.43569e-07
7.95116e-06
1.32749e-07
7.94669e-06
2.19827e-07
7.92667e-06
1.41302e-07
7.92506e-06
1.31729e-07
7.93379e-06
2.19495e-07
7.93078e-06
2.50268e-07
7.92758e-06
2.15983e-07
7.93563e-06
2.08183e-07
7.94671e-06
2.24321e-07
2.23616e-07
7.95201e-06
8.34712e-06
3.35172e-07
8.32145e-06
3.32203e-07
8.32397e-06
-2.90382e-08
8.32125e-06
1.33767e-07
8.30359e-06
2.81859e-07
8.32782e-06
3.82217e-07
8.32695e-06
2.41438e-07
8.32802e-06
2.78006e-07
8.33838e-06
3.22327e-07
8.32857e-06
1.53374e-07
8.32982e-06
1.31501e-07
8.32707e-06
2.22578e-07
8.30839e-06
1.59987e-07
8.30447e-06
1.35642e-07
8.31369e-06
2.10278e-07
8.31337e-06
2.50585e-07
8.30972e-06
2.19634e-07
8.31557e-06
2.02336e-07
8.32688e-06
2.13014e-07
2.16737e-07
8.33376e-06
8.74235e-06
2.94487e-07
8.72067e-06
3.53884e-07
8.7175e-06
-2.58682e-08
8.72056e-06
1.30699e-07
8.70343e-06
2.98995e-07
8.72276e-06
3.6289e-07
8.72636e-06
2.37836e-07
8.72622e-06
2.78143e-07
8.73428e-06
3.14267e-07
8.72574e-06
1.61919e-07
8.72632e-06
1.30914e-07
8.72491e-06
2.23991e-07
8.70794e-06
1.76952e-07
8.70196e-06
1.41627e-07
8.71125e-06
2.00985e-07
8.71365e-06
2.48182e-07
8.71031e-06
2.22981e-07
8.71422e-06
1.98421e-07
8.72476e-06
2.02478e-07
2.08287e-07
8.73321e-06
9.15611e-06
2.55995e-07
9.13905e-06
3.70943e-07
9.13015e-06
-1.69703e-08
9.13785e-06
1.22999e-07
9.12294e-06
3.13911e-07
9.13658e-06
3.49246e-07
9.14365e-06
2.30765e-07
9.14383e-06
2.77965e-07
9.1489e-06
3.09201e-07
9.14061e-06
1.70205e-07
9.14087e-06
1.30657e-07
9.14093e-06
2.23926e-07
9.12611e-06
1.91776e-07
9.11851e-06
1.49225e-07
9.1273e-06
1.92201e-07
9.13242e-06
2.43062e-07
9.1301e-06
2.25294e-07
9.13232e-06
1.96208e-07
9.14155e-06
1.93245e-07
1.98862e-07
9.15098e-06
9.58933e-06
2.2013e-07
9.5775e-06
3.82769e-07
9.56308e-06
-2.54671e-09
9.57413e-06
1.11944e-07
9.56285e-06
3.25192e-07
9.5705e-06
3.41598e-07
9.5794e-06
2.21863e-07
9.58119e-06
2.76175e-07
9.58355e-06
3.06839e-07
9.57438e-06
1.79379e-07
9.5742e-06
1.30833e-07
9.57619e-06
2.2194e-07
9.56398e-06
2.03986e-07
9.55532e-06
1.57879e-07
9.56298e-06
1.84546e-07
9.57053e-06
2.35508e-07
9.5698e-06
2.26031e-07
9.57078e-06
1.95223e-07
9.57845e-06
1.85579e-07
1.8929e-07
9.58802e-06
1.0043e-05
1.87292e-07
1.0037e-05
3.8879e-07
1.00174e-05
1.69658e-08
1.00303e-05
9.90554e-08
1.0024e-05
3.31503e-07
1.00257e-05
3.39963e-07
1.00342e-05
2.13278e-07
1.00388e-05
2.71643e-07
1.00399e-05
3.05745e-07
1.0029e-05
1.90233e-07
1.00278e-05
1.32033e-07
1.00321e-05
2.17632e-07
1.00229e-05
2.13173e-07
1.00136e-05
1.67188e-07
1.00196e-05
1.78563e-07
1.0029e-05
2.26126e-07
1.00302e-05
2.24812e-07
1.00305e-05
1.94945e-07
1.00366e-05
1.79453e-07
1.80272e-07
1.00456e-05
1.05181e-05
1.57815e-07
1.05183e-05
3.88599e-07
1.04945e-05
4.08073e-08
1.05074e-05
8.61288e-08
1.05071e-05
3.31802e-07
1.05037e-05
3.43373e-07
1.05099e-05
2.07108e-07
1.05174e-05
2.64118e-07
1.05187e-05
3.04403e-07
1.05067e-05
2.02284e-07
1.05037e-05
1.35018e-07
1.05098e-05
2.11491e-07
1.05039e-05
2.19056e-07
1.04946e-05
1.76535e-07
1.04985e-05
1.74664e-07
1.05088e-05
2.15811e-07
1.05122e-05
2.21416e-07
1.05124e-05
1.94745e-07
1.05171e-05
1.74794e-07
1.72156e-07
1.05252e-05
1.10159e-05
1.31927e-07
1.10224e-05
3.82111e-07
1.09954e-05
6.7773e-08
1.10064e-05
7.51232e-08
1.10125e-05
3.25707e-07
1.10062e-05
3.49683e-07
1.10085e-05
2.04869e-07
1.10181e-05
2.54429e-07
1.10209e-05
3.01689e-07
1.10085e-05
2.1462e-07
1.10033e-05
1.40211e-07
1.10104e-05
2.04416e-07
1.10079e-05
2.21588e-07
1.09992e-05
1.8524e-07
1.1001e-05
1.7287e-07
1.10112e-05
2.05576e-07
1.10167e-05
2.15867e-07
1.10174e-05
1.94076e-07
1.10209e-05
1.71303e-07
1.65032e-07
1.1028e-05
1.15376e-05
1.09726e-07
1.155e-05
3.69634e-07
1.15215e-05
9.62681e-08
1.15288e-05
6.78963e-08
1.1541e-05
3.13485e-07
1.15341e-05
3.56537e-07
1.15318e-05
2.07218e-07
1.15423e-05
2.43894e-07
1.15472e-05
2.96786e-07
1.15354e-05
2.26438e-07
1.15281e-05
1.47516e-07
1.1535e-05
1.9752e-07
1.15356e-05
2.20974e-07
1.15283e-05
1.92559e-07
1.15283e-05
1.72912e-07
1.15376e-05
1.96274e-07
1.15449e-05
2.08568e-07
1.15465e-05
1.92415e-07
1.15491e-05
1.68688e-07
1.58891e-07
1.15553e-05
1.20844e-05
9.11558e-08
1.2102e-05
3.52016e-07
1.20739e-05
1.2439e-07
1.20759e-05
6.58527e-08
1.20933e-05
2.96078e-07
1.20881e-05
3.6176e-07
1.20815e-05
2.13805e-07
1.20913e-05
2.34115e-07
1.20986e-05
2.8947e-07
1.20881e-05
2.36973e-07
1.20792e-05
1.56446e-07
1.2085e-05
1.91719e-07
1.20882e-05
2.17728e-07
1.20828e-05
1.97965e-07
1.20815e-05
1.74212e-07
1.20893e-05
1.88436e-07
1.20977e-05
2.00245e-07
1.21007e-05
1.89361e-07
1.21029e-05
1.66529e-07
1.53731e-07
1.2108e-05
1.26577e-05
7.60234e-08
1.26792e-05
3.30546e-07
1.26533e-05
1.50268e-07
1.26495e-05
6.96329e-08
1.26706e-05
2.75038e-07
1.26688e-05
3.63565e-07
1.26591e-05
2.23494e-07
1.26665e-05
2.26686e-07
1.26759e-05
2.80075e-07
1.26675e-05
2.45404e-07
1.26575e-05
1.66392e-07
1.26617e-05
1.8753e-07
1.26668e-05
2.12659e-07
1.26636e-05
2.01122e-07
1.26618e-05
1.76045e-07
1.2668e-05
1.82234e-07
1.26765e-05
1.91753e-07
1.2681e-05
1.84823e-07
1.26833e-05
1.64256e-07
1.49527e-07
1.26875e-05
1.32589e-05
6.40221e-08
1.32829e-05
3.06565e-07
1.32606e-05
1.72548e-07
1.32515e-05
7.87857e-08
1.32741e-05
2.52457e-07
1.32768e-05
3.60835e-07
1.32653e-05
2.34998e-07
1.32694e-05
2.22533e-07
1.32801e-05
2.69377e-07
1.32745e-05
2.51066e-07
1.32643e-05
1.76533e-07
1.32667e-05
1.85181e-07
1.32728e-05
2.0657e-07
1.32719e-05
2.02019e-07
1.32702e-05
1.77737e-07
1.32748e-05
1.77578e-07
1.3283e-05
1.83637e-07
1.32886e-05
1.79195e-07
1.32915e-05
1.61339e-07
1.46069e-07
1.3295e-05
1.38894e-05
5.47646e-08
1.39148e-05
2.81204e-07
1.38968e-05
1.9054e-07
1.38835e-05
9.20755e-08
1.39055e-05
2.30485e-07
1.39127e-05
3.5363e-07
1.39007e-05
2.46933e-07
1.39016e-05
2.21653e-07
1.39127e-05
2.58305e-07
1.39101e-05
2.53628e-07
1.39006e-05
1.86024e-07
1.39012e-05
1.84576e-07
1.39076e-05
2.00232e-07
1.39088e-05
2.00851e-07
1.39077e-05
1.78767e-07
1.39112e-05
1.74086e-07
1.39187e-05
1.76161e-07
1.39248e-05
1.73094e-07
1.39286e-05
1.57572e-07
1.42881e-07
1.39317e-05
1.45506e-05
4.78293e-08
1.45757e-05
2.56095e-07
1.45626e-05
2.03618e-07
1.45472e-05
1.07463e-07
1.45665e-05
2.11196e-07
1.4577e-05
3.4318e-07
1.45663e-05
2.57623e-07
1.45646e-05
2.23337e-07
1.45753e-05
2.47603e-07
1.45757e-05
2.53269e-07
1.45676e-05
1.94066e-07
1.45669e-05
1.85352e-07
1.45728e-05
1.94272e-07
1.45757e-05
1.97964e-07
1.45756e-05
1.78902e-07
1.45784e-05
1.7129e-07
1.4585e-05
1.69477e-07
1.45913e-05
1.66867e-07
1.45956e-05
1.5326e-07
1.39414e-07
1.4599e-05
1.5244e-05
4.27447e-08
1.52669e-05
2.33144e-07
1.52603e-05
2.10231e-07
1.52442e-05
1.23574e-07
1.52581e-05
1.97307e-07
1.52706e-05
3.30634e-07
1.52632e-05
2.65095e-07
1.52601e-05
2.26421e-07
1.52698e-05
2.37913e-07
1.52725e-05
2.5054e-07
1.52663e-05
2.00283e-07
1.52647e-05
1.8689e-07
1.527e-05
1.89002e-07
1.52741e-05
1.93825e-07
1.52752e-05
1.77887e-07
1.52776e-05
1.68805e-07
1.52835e-05
1.63619e-07
1.52898e-05
1.60599e-07
1.52943e-05
1.48781e-07
1.35528e-07
1.52981e-05
1.59714e-05
3.87051e-08
1.60014e-05
2.03114e-07
1.59985e-05
2.13168e-07
1.59749e-05
1.47171e-07
1.5981e-05
1.91153e-07
1.5996e-05
3.15618e-07
1.59929e-05
2.68204e-07
1.59895e-05
2.29882e-07
1.59978e-05
2.2956e-07
1.60024e-05
2.45945e-07
1.59981e-05
2.04579e-07
1.59963e-05
1.8872e-07
1.60008e-05
1.84531e-07
1.60056e-05
1.8898e-07
1.60079e-05
1.75606e-07
1.60103e-05
1.66397e-07
1.60154e-05
1.58507e-07
1.60216e-05
1.54439e-07
1.60262e-05
1.44124e-07
1.31471e-07
1.60303e-05
1.6733e-05
3.63371e-08
1.67461e-05
1.90023e-07
1.67472e-05
2.12067e-07
1.67328e-05
1.6158e-07
1.67396e-05
1.84311e-07
1.67567e-05
2.98547e-07
1.67574e-05
2.67427e-07
1.67542e-05
2.33127e-07
1.67612e-05
2.22584e-07
1.6767e-05
2.40103e-07
1.67647e-05
2.06896e-07
1.6763e-05
1.90451e-07
1.67668e-05
1.80666e-07
1.6772e-05
1.83796e-07
1.67755e-05
1.72158e-07
1.67783e-05
1.63536e-07
1.67827e-05
1.54124e-07
1.67887e-05
1.48471e-07
1.67936e-05
1.39211e-07
1.27513e-07
1.67975e-05
1.75322e-05
3.4463e-08
1.75499e-05
1.72318e-07
1.75503e-05
2.117e-07
1.7534e-05
1.77914e-07
1.75366e-05
1.81633e-07
1.75535e-05
2.81737e-07
1.75577e-05
2.63201e-07
1.75555e-05
2.35274e-07
1.75613e-05
2.16781e-07
1.7568e-05
2.33422e-07
1.75677e-05
2.07263e-07
1.75664e-05
1.91707e-07
1.75695e-05
1.77595e-07
1.75748e-05
1.78433e-07
1.7579e-05
1.67963e-07
1.75826e-05
1.59973e-07
1.75866e-05
1.50079e-07
1.75921e-05
1.42978e-07
1.75973e-05
1.34049e-07
1.23517e-07
1.76013e-05
1.83696e-05
3.32588e-08
1.83811e-05
1.60798e-07
1.83859e-05
2.06911e-07
1.83738e-05
1.89992e-07
1.83743e-05
1.81146e-07
1.83894e-05
2.66643e-07
1.83958e-05
2.56769e-07
1.83949e-05
2.3612e-07
1.83999e-05
2.11827e-07
1.84071e-05
2.26216e-07
1.84085e-05
2.05835e-07
1.84082e-05
1.92093e-07
1.84107e-05
1.75083e-07
1.8416e-05
1.73093e-07
1.84208e-05
1.63204e-07
1.84251e-05
1.55673e-07
1.84293e-05
1.45852e-07
1.84342e-05
1.38086e-07
1.84395e-05
1.28749e-07
1.19306e-07
1.84437e-05
1.92474e-05
3.22909e-08
1.92579e-05
1.50208e-07
1.92632e-05
2.01662e-07
1.92539e-05
1.99304e-07
1.92531e-05
1.81911e-07
1.92662e-05
2.53534e-07
1.9274e-05
2.48964e-07
1.92745e-05
2.35632e-07
1.92788e-05
2.07516e-07
1.92863e-05
2.18755e-07
1.92895e-05
2.02629e-07
1.92901e-05
1.9153e-07
1.92923e-05
1.72867e-07
1.92972e-05
1.68138e-07
1.93024e-05
1.58058e-07
1.93071e-05