/*--------------------------------*- C++ -*----------------------------------*\
| =========                 |                                                 |
| \\      /  F ield         | OpenFOAM: The Open Source CFD Toolbox           |
|  \\    /   O peration     | Version:  2506                                  |
|   \\  /    A nd           | Website:  www.openfoam.com                      |
|    \\/     M anipulation  |                                                 |
\*---------------------------------------------------------------------------*/
FoamFile
{
    version     2.0;
    format      ascii;
    arch        "LSB;label=32;scalar=64";
    class       volVectorField;
    location    "8.25";
    object      U;
}
// * * * * * * * * * * * * * * * * * * * * * * * * * * * * * * * * * * * * * //

dimensions      [0 1 -1 0 0 0 0];

internalField   nonuniform List<vector> 
9600
(
(0.946628 0.0157609 0)
(1.0707 -0.00635178 0)
(0.927049 0.00530914 0)
(1.12653 -0.0243385 0)
(0.727151 0.0166404 0)
(1.24505 0.0186487 0)
(0.801736 -0.00832332 0)
(1.0379 0.00854417 0)
(0.908847 0.0155748 0)
(1.04153 -0.00494841 0)
(0.853598 0.0145846 0)
(1.1039 -0.0214161 0)
(0.810227 0.00590438 0)
(1.16599 -0.00317511 0)
(0.762433 0.0103796 0)
(1.18561 0.0152751 0)
(0.77358 0.0107231 0)
(1.16259 0.0229701 0)
(0.823909 0.0164303 0)
(1.13072 0.0242697 0)
(0.948633 0.015632 0)
(1.06422 -0.00605347 0)
(0.929321 0.00469492 0)
(1.11699 -0.0222209 0)
(0.730492 0.0158444 0)
(1.23252 0.0183227 0)
(0.822309 -0.00624931 0)
(1.03279 0.00789681 0)
(0.919133 0.0153996 0)
(1.0335 -0.00380818 0)
(0.867661 0.0132886 0)
(1.08581 -0.0200288 0)
(0.823833 0.00428592 0)
(1.14288 -0.00143169 0)
(0.788483 0.00984442 0)
(1.14899 0.0153478 0)
(0.83551 0.0114338 0)
(1.09361 0.0211078 0)
(0.931495 0.0185033 0)
(1.01112 0.0219885 0)
(0.952616 0.0154841 0)
(1.05574 -0.00580626 0)
(0.934207 0.00421123 0)
(1.10502 -0.0204855 0)
(0.74357 0.0143219 0)
(1.20383 0.0177721 0)
(0.859107 -0.00443836 0)
(1.01701 0.00675374 0)
(0.936492 0.015298 0)
(1.01829 -0.00301367 0)
(0.893466 0.0121272 0)
(1.05948 -0.0189982 0)
(0.856817 0.00288688 0)
(1.10007 -0.00060771 0)
(0.846995 0.00907304 0)
(1.08132 0.0145005 0)
(0.914461 0.0125858 0)
(1.01898 0.0187113 0)
(0.984518 0.020073 0)
(0.981708 0.0213097 0)
(0.958133 0.0153697 0)
(1.04691 -0.00556851 0)
(0.941866 0.0037776 0)
(1.09038 -0.0188186 0)
(0.76896 0.0130481 0)
(1.1604 0.0168603 0)
(0.905819 -0.00274674 0)
(0.99305 0.00595268 0)
(0.951512 0.0151939 0)
(1.00027 -0.00241626 0)
(0.922206 0.0113587 0)
(1.03145 -0.0182516 0)
(0.897939 0.00199907 0)
(1.05494 -0.0004358 0)
(0.910712 0.00926134 0)
(1.02557 0.0132182 0)
(0.966013 0.0135806 0)
(0.988472 0.0176277 0)
(0.991991 0.0203369 0)
(0.987585 0.0218344 0)
(0.964568 0.0152835 0)
(1.03886 -0.00534143 0)
(0.951434 0.00338474 0)
(1.07375 -0.0173313 0)
(0.804688 0.0122926 0)
(1.10928 0.0156623 0)
(0.950486 -0.00117372 0)
(0.969775 0.00565279 0)
(0.958217 0.0150411 0)
(0.985661 -0.00202887 0)
(0.944929 0.0107585 0)
(1.00991 -0.0177584 0)
(0.933044 0.00155447 0)
(1.022 -0.000769599 0)
(0.955875 0.00990888 0)
(1.00065 0.0121834 0)
(0.989497 0.0142156 0)
(0.988884 0.0175187 0)
(0.993356 0.0200069 0)
(0.993842 0.0224888 0)
(0.971266 0.0152043 0)
(1.03241 -0.0051353 0)
(0.961582 0.00306926 0)
(1.05643 -0.0160648 0)
(0.844932 0.0119604 0)
(1.06126 0.0142891 0)
(0.983417 0.000154693 0)
(0.955547 0.00581585 0)
(0.958423 0.0147944 0)
(0.978084 -0.00190809 0)
(0.958643 0.0102308 0)
(0.998676 -0.0174199 0)
(0.956358 0.00127098 0)
(1.00373 -0.00122916 0)
(0.979777 0.0102602 0)
(0.995941 0.011619 0)
(0.998573 0.0144284 0)
(0.995812 0.0175372 0)
(0.997548 0.0197577 0)
(0.99775 0.0229805 0)
(0.977691 0.015113 0)
(1.02782 -0.00494949 0)
(0.971157 0.00285928 0)
(1.03997 -0.0150558 0)
(0.883076 0.0119214 0)
(1.02538 0.0129295 0)
(1.00187 0.00116253 0)
(0.952439 0.00632923 0)
(0.958199 0.0144733 0)
(0.97751 -0.00198394 0)
(0.966029 0.00974714 0)
(0.996241 -0.017215 0)
(0.969477 0.00108014 0)
(0.995599 -0.00165954 0)
(0.98971 0.0101813 0)
(0.997171 0.0113793 0)
(1.00175 0.0142765 0)
(0.999532 0.017602 0)
(1.00034 0.019663 0)
(0.99932 0.0232758 0)
(0.983516 0.0149977 0)
(1.02479 -0.00478007 0)
(0.979586 0.00276257 0)
(1.02558 -0.014293 0)
(0.91475 0.0120676 0)
(1.00467 0.011748 0)
(1.00876 0.00186267 0)
(0.956859 0.00701808 0)
(0.96189 0.0141329 0)
(0.981856 -0.00213017 0)
(0.971456 0.00927706 0)
(0.998445 -0.0170827 0)
(0.976367 0.000999852 0)
(0.992699 -0.00201801 0)
(0.99272 0.00991213 0)
(0.998112 0.0112566 0)
(1.00243 0.0140184 0)
(0.999944 0.0178505 0)
(1.00032 0.0195529 0)
(0.998653 0.023491 0)
(0.988605 0.0148511 0)
(1.02272 -0.0046238 0)
(0.986847 0.00277176 0)
(1.01381 -0.0137282 0)
(0.938792 0.0122706 0)
(0.996609 0.0108181 0)
(1.00904 0.00231738 0)
(0.964002 0.00769624 0)
(0.969784 0.0137935 0)
(0.988613 -0.00226231 0)
(0.977717 0.008825 0)
(1.00169 -0.016925 0)
(0.980419 0.00100454 0)
(0.991907 -0.00227541 0)
(0.992991 0.0095744 0)
(0.997895 0.0111792 0)
(1.00217 0.0137962 0)
(0.999209 0.0182037 0)
(0.999372 0.0193975 0)
(0.997551 0.0237392 0)
(0.992908 0.0146709 0)
(1.021 -0.00447933 0)
(0.993142 0.00287264 0)
(1.00464 -0.0133063 0)
(0.956289 0.0124162 0)
(0.996535 0.0101382 0)
(1.00695 0.00262845 0)
(0.970938 0.00823791 0)
(0.979779 0.0134431 0)
(0.995724 -0.00235485 0)
(0.985151 0.00842401 0)
(1.00428 -0.0166676 0)
(0.983619 0.0010613 0)
(0.991648 -0.0024046 0)
(0.992468 0.00918127 0)
(0.997025 0.0111603 0)
(1.00174 0.0135475 0)
(0.998792 0.0185613 0)
(0.999245 0.0192633 0)
(0.997763 0.0239604 0)
(0.996385 0.01446 0)
(1.01926 -0.00434733 0)
(0.998602 0.00304762 0)
(0.997844 -0.0129808 0)
(0.969012 0.0124425 0)
(1.00032 0.00966709 0)
(1.00495 0.00288965 0)
(0.976814 0.00859944 0)
(0.989699 0.0130641 0)
(1.00192 -0.00241067 0)
(0.992563 0.008099 0)
(1.00594 -0.0162762 0)
(0.986659 0.0011532 0)
(0.991412 -0.00239212 0)
(0.991831 0.00874293 0)
(0.995893 0.0111986 0)
(1.00122 0.0132011 0)
(0.99894 0.0188849 0)
(1.00017 0.0191491 0)
(0.999511 0.0240199 0)
(0.998994 0.0142252 0)
(1.01736 -0.00422707 0)
(1.00322 0.00327215 0)
(0.993201 -0.0127165 0)
(0.978349 0.0123305 0)
(1.00519 0.00936306 0)
(1.00395 0.0031392 0)
(0.981722 0.00878592 0)
(0.998235 0.0126558 0)
(1.00667 -0.00242599 0)
(0.998577 0.00785042 0)
(1.00688 -0.0157507 0)
(0.989436 0.00125595 0)
(0.991264 -0.00222305 0)
(0.991249 0.0082662 0)
(0.994671 0.0112759 0)
(1.00044 0.0127606 0)
(0.999181 0.0191274 0)
(1.0014 0.019024 0)
(1.00185 0.0238524 0)
(1.00072 0.0139754 0)
(1.01532 -0.00411865 0)
(1.00693 0.00352158 0)
(0.990499 -0.0124862 0)
(0.985064 0.0120913 0)
(1.00951 0.00918114 0)
(1.00392 0.00338665 0)
(0.985831 0.00883873 0)
(1.00485 0.0122342 0)
(1.00992 -0.00238754 0)
(1.00251 0.00766588 0)
(1.00724 -0.0151198 0)
(0.991621 0.0013453 0)
(0.991369 -0.00190844 0)
(0.990839 0.00776012 0)
(0.993527 0.0113888 0)
(0.999413 0.0122584 0)
(0.99911 0.0192408 0)
(1.00225 0.018903 0)
(1.00383 0.0234604 0)
(1.00162 0.0137199 0)
(1.01331 -0.00402215 0)
(1.00971 0.00377276 0)
(0.989449 -0.0122672 0)
(0.989574 0.0117521 0)
(1.01244 0.00908167 0)
(1.00445 0.00362438 0)
(0.989171 0.00880714 0)
(1.00948 0.0118123 0)
(1.01183 -0.00228292 0)
(1.00454 0.00752512 0)
(1.00711 -0.014418 0)
(0.993069 0.00139908 0)
(0.991745 -0.00147531 0)
(0.990783 0.00723556 0)
(0.992729 0.011539 0)
(0.998524 0.0117398 0)
(0.998843 0.0192013 0)
(1.00271 0.0188202 0)
(1.00527 0.0228681 0)
(1.00181 0.0134659 0)
(1.01151 -0.00393385 0)
(1.01157 0.00400191 0)
(0.989676 -0.0120422 0)
(0.992251 0.0113464 0)
(1.01373 0.00903423 0)
(1.00512 0.00384307 0)
(0.991733 0.00872779 0)
(1.01236 0.0114005 0)
(1.01263 -0.00211433 0)
(1.00532 0.00741201 0)
(1.00658 -0.0136709 0)
(0.993912 0.00139707 0)
(0.992272 -0.000950441 0)
(0.991201 0.00669077 0)
(0.992526 0.0117113 0)
(0.998212 0.011256 0)
(0.998845 0.0189935 0)
(1.0032 0.0187848 0)
(1.00651 0.0221173 0)
(1.00148 0.0132175 0)
(1.01008 -0.00385142 0)
(1.01258 0.00419568 0)
(0.990763 -0.0117965 0)
(0.993511 0.0109106 0)
(1.01357 0.00901675 0)
(1.00569 0.00402583 0)
(0.993556 0.00862754 0)
(1.01381 0.0110071 0)
(1.0126 -0.00189491 0)
(1.00552 0.00731586 0)
(1.00586 -0.0128814 0)
(0.994425 0.00132446 0)
(0.992799 -0.000373401 0)
(0.992002 0.00613075 0)
(0.992925 0.0118772 0)
(0.998578 0.0108444 0)
(0.999377 0.0186085 0)
(1.00399 0.0187918 0)
(1.0078 0.0212786 0)
(1.00086 0.0129756 0)
(1.00908 -0.00377025 0)
(1.01289 0.0043468 0)
(0.992317 -0.0115207 0)
(0.993776 0.010474 0)
(1.01235 0.00901466 0)
(1.00608 0.00415803 0)
(0.994735 0.00852968 0)
(1.0142 0.0106357 0)
(1.01202 -0.00164093 0)
(1.00549 0.0072203 0)
(1.00522 -0.0120386 0)
(0.994845 0.00117832 0)
(0.99323 0.000226282 0)
(0.992921 0.00556959 0)
(0.993625 0.0119969 0)
(0.999286 0.010525 0)
(1.0002 0.0180626 0)
(1.00484 0.01883 0)
(1.0089 0.0204352 0)
(1.00013 0.0127378 0)
(1.00845 -0.00368469 0)
(1.0127 0.00445182 0)
(0.993997 -0.0112098 0)
(0.993442 0.0100571 0)
(1.01056 0.00901765 0)
(1.00633 0.00423222 0)
(0.995407 0.00845026 0)
(1.01387 0.0102857 0)
(1.01121 -0.00137489 0)
(1.00532 0.0071119 0)
(1.00482 -0.0111525 0)
(0.995302 0.00098035 0)
(0.993529 0.000836388 0)
(0.993699 0.00502231 0)
(0.994216 0.0120358 0)
(0.999839 0.0103188 0)
(1.00082 0.0173927 0)
(1.00524 0.0188676 0)
(1.00934 0.0196533 0)
(0.999476 0.0125008 0)
(1.00808 -0.00358995 0)
(1.01225 0.0045109 0)
(0.995547 -0.0108604 0)
(0.992859 0.0096678 0)
(1.00864 0.00902004 0)
(1.0065 0.00424802 0)
(0.995729 0.00839555 0)
(1.01314 0.00995316 0)
(1.0104 -0.00110985 0)
(1.005 0.00697874 0)
(1.00469 -0.0102422 0)
(0.995833 0.000755993 0)
(0.993709 0.001445 0)
(0.994227 0.00451223 0)
(0.994459 0.0119797 0)
(0.999933 0.0102382 0)
(1.0009 0.0166493 0)
(1.00488 0.0188748 0)
(1.00889 0.0189796 0)
(0.998974 0.0122608 0)
(1.00786 -0.00348129 0)
(1.01172 0.00452661 0)
(0.996819 -0.0104714 0)
(0.992298 0.00930634 0)
(1.00691 0.00901783 0)
(1.00662 0.00421097 0)
(0.995858 0.00836811 0)
(1.01228 0.00962902 0)
(1.00972 -0.000850365 0)
(1.00455 0.00681931 0)
(1.00472 -0.00932761 0)
(0.996428 0.000526329 0)
(0.993815 0.00204606 0)
(0.994549 0.00407254 0)
(0.994386 0.0118398 0)
(0.999583 0.0102745 0)
(1.00051 0.0158813 0)
(1.00386 0.0188334 0)
(1.00774 0.0184537 0)
(0.998642 0.0120142 0)
(1.00771 -0.00335514 0)
(1.01123 0.00450236 0)
(0.997776 -0.0100431 0)
(0.991915 0.0089626 0)
(1.00553 0.0090156 0)
(1.00671 0.0041224 0)
(0.995916 0.00837149 0)
(1.01147 0.00930849 0)
(1.00923 -0.000603612 0)
(1.00403 0.00664474 0)
(1.00479 -0.00842207 0)
(0.997051 0.000304579 0)
(0.993911 0.00263233 0)
(0.994767 0.00371642 0)
(0.994202 0.0116324 0)
(0.999 0.0104055 0)
(0.999963 0.015129 0)
(1.00258 0.0187262 0)
(1.00631 0.0180911 0)
(0.99845 0.0117585 0)
(1.00759 -0.00321049 0)
(1.01082 0.00444377 0)
(0.998461 -0.00957761 0)
(0.991753 0.00862547 0)
(1.00455 0.00901802 0)
(1.00675 0.00398948 0)
(0.995982 0.00840113 0)
(1.01078 0.00899418 0)
(1.00892 -0.000369122 0)
(1.00349 0.00646083 0)
(1.00482 -0.00753397 0)
(0.997656 0.000106294 0)
(0.994046 0.00320937 0)
(0.994957 0.00345438 0)
(0.994107 0.0113698 0)
(0.998412 0.0106081 0)
(0.999551 0.0144278 0)
(1.00144 0.0185282 0)
(1.00502 0.0178729 0)
(0.998349 0.0114911 0)
(1.00751 -0.00304548 0)
(1.01046 0.00435389 0)
(0.998954 -0.00907609 0)
(0.991778 0.00828556 0)
(1.00391 0.00902778 0)
(1.00676 0.00382762 0)
(0.996097 0.00844175 0)
(1.01018 0.00869113 0)
(1.00876 -0.000148468 0)
(1.00298 0.00627648 0)
(1.00479 -0.00666354 0)
(0.998208 -6.96373e-05 0)
(0.994241 0.00376638 0)
(0.995147 0.00329482 0)
(0.994205 0.0110508 0)
(0.997946 0.0108676 0)
(0.999407 0.0138004 0)
(1.00065 0.0182176 0)
(1.00407 0.0177715 0)
(0.998295 0.0112106 0)
(1.00746 -0.00285971 0)
(1.01013 0.00423445 0)
(0.999328 -0.00854038 0)
(0.991927 0.00793619 0)
(1.00352 0.00904553 0)
(1.00672 0.00364662 0)
(0.99627 0.0084872 0)
(1.00963 0.00840187 0)
(1.00871 5.5352e-05 0)
(1.00249 0.00610196 0)
(1.00471 -0.0058206 0)
(0.998695 -0.000242015 0)
(0.994495 0.00428956 0)
(0.995336 0.00323038 0)
(0.994501 0.0106676 0)
(0.99764 0.0111617 0)
(0.999515 0.0132651 0)
(1.00025 0.0177764 0)
(1.00346 0.0177528 0)
(0.998261 0.0109159 0)
(1.00743 -0.00265228 0)
(1.00981 0.00408847 0)
(0.999631 -0.00797404 0)
(0.992149 0.00757233 0)
(1.00331 0.00907553 0)
(1.00663 0.00344301 0)
(0.996496 0.00853913 0)
(1.0091 0.00813379 0)
(1.00872 0.000237924 0)
(1.00204 0.00594618 0)
(1.00458 -0.00500168 0)
(0.999133 -0.000417492 0)
(0.994792 0.00477212 0)
(0.995518 0.00326347 0)
(0.994949 0.0102223 0)
(0.997479 0.0114575 0)
(0.999781 0.0128401 0)
(1.00018 0.0171997 0)
(1.00312 0.017758 0)
(0.998235 0.0106051 0)
(1.00741 -0.00242148 0)
(1.00951 0.0039149 0)
(0.999888 -0.0073769 0)
(0.992413 0.00718654 0)
(1.00319 0.00912049 0)
(1.0065 0.00322893 0)
(0.996762 0.00858291 0)
(1.00857 0.00789114 0)
(1.00877 0.000392994 0)
(1.00163 0.00582041 0)
(1.00442 -0.00418337 0)
(0.99955 -0.000565646 0)
(0.995116 0.00520356 0)
(0.995692 0.00339313 0)
(0.995492 0.00972278 0)
(0.99744 0.0117217 0)
(1.0001 0.0125395 0)
(1.00035 0.0165202 0)
(1.00297 0.0177184 0)
(0.998217 0.0102796 0)
(1.00737 -0.0021697 0)
(1.00923 0.00371765 0)
(1.0001 -0.00675626 0)
(0.992709 0.00678879 0)
(1.00313 0.00917089 0)
(1.00634 0.0030197 0)
(0.997051 0.00860739 0)
(1.00804 0.0076754 0)
(1.00885 0.000514829 0)
(1.00128 0.0057237 0)
(1.00422 -0.00337306 0)
(0.999971 -0.000689917 0)
(0.995451 0.00558352 0)
(0.995859 0.00362237 0)
(0.996083 0.00918104 0)
(0.997507 0.0119244 0)
(1.00041 0.0123653 0)
(1.00066 0.0157685 0)
(1.00292 0.0175635 0)
(0.998211 0.00993793 0)
(1.0073 -0.00189563 0)
(1.00898 0.00349738 0)
(1.00028 -0.0061119 0)
(0.993034 0.00637724 0)
(1.00309 0.00922964 0)
(1.00616 0.00281205 0)
(0.997349 0.00860798 0)
(1.00752 0.00750563 0)
(1.00892 0.000601936 0)
(1.001 0.00563972 0)
(1.00398 -0.00257005 0)
(1.00042 -0.000818559 0)
(0.995798 0.00589874 0)
(0.996017 0.00396585 0)
(0.996687 0.00860784 0)
(0.997671 0.0120224 0)
(1.00066 0.012319 0)
(1.00104 0.0150013 0)
(1.00297 0.0172402 0)
(0.998224 0.00958146 0)
(1.00719 -0.00159994 0)
(1.00877 0.00325101 0)
(1.00041 -0.00544155 0)
(0.993384 0.00595079 0)
(1.00305 0.00928648 0)
(1.00597 0.00262094 0)
(0.997644 0.00856757 0)
(1.00702 0.00739414 0)
(1.00899 0.000660848 0)
(1.00079 0.00554605 0)
(1.00369 -0.00176286 0)
(1.00089 -0.000926697 0)
(0.996164 0.00611276 0)
(0.996157 0.00440972 0)
(0.997276 0.00805419 0)
(0.99793 0.0119911 0)
(1.00083 0.0123833 0)
(1.00144 0.0142998 0)
(1.00309 0.016726 0)
(0.99826 0.00921052 0)
(1.00703 -0.00128454 0)
(1.0086 0.0029872 0)
(1.00051 -0.00475776 0)
(0.993756 0.00552286 0)
(1.003 0.00933706 0)
(1.0058 0.00245142 0)
(0.997928 0.00847827 0)
(1.00655 0.00733789 0)
(1.00904 0.000693262 0)
(1.00066 0.00545334 0)
(1.00338 -0.000950799 0)
(1.00137 -0.000993569 0)
(0.996561 0.00622466 0)
(0.996283 0.00492494 0)
(0.997838 0.00756623 0)
(0.998279 0.0118146 0)
(1.00096 0.0125042 0)
(1.00179 0.0137246 0)
(1.00329 0.0160439 0)
(0.998318 0.00882461 0)
(1.00683 -0.000950082 0)
(1.00846 0.00270448 0)
(1.00058 -0.00406208 0)
(0.994143 0.00509802 0)
(1.00294 0.00937542 0)
(1.00565 0.00231809 0)
(0.998199 0.00832783 0)
(1.0061 0.00733831 0)
(1.00906 0.000722246 0)
(1.0006 0.00534323 0)
(1.00303 -0.000130642 0)
(1.00184 -0.0010103 0)
(0.997002 0.00623818 0)
(0.99639 0.00549672 0)
(0.998357 0.00717381 0)
(0.998712 0.0114898 0)
(1.00106 0.0126229 0)
(1.00208 0.0133201 0)
(1.00354 0.0152555 0)
(0.998395 0.00842713 0)
(1.0066 -0.000599503 0)
(1.00834 0.00240133 0)
(1.00063 -0.0033563 0)
(0.994537 0.00468236 0)
(1.00286 0.00938729 0)
(1.00553 0.00223568 0)
(0.998458 0.00810085 0)
(1.00569 0.00738207 0)
(1.00905 0.000751375 0)
(1.00061 0.0051982 0)
(1.00266 0.000673124 0)
(1.00229 -0.000954942 0)
(0.997497 0.00613735 0)
(0.996485 0.00608831 0)
(0.998822 0.00691883 0)
(0.99922 0.0110522 0)
(1.00119 0.0126744 0)
(1.00228 0.0130763 0)
(1.00382 0.0144648 0)
(0.998487 0.00801678 0)
(1.00635 -0.000234136 0)
(1.00823 0.00209001 0)
(1.00067 -0.00265906 0)
(0.994933 0.00428913 0)
(1.00277 0.00936103 0)
(1.00541 0.00221226 0)
(0.998713 0.00780536 0)
(1.00529 0.00744928 0)
(1.00901 0.00080059 0)
(1.00067 0.00500915 0)
(1.00229 0.00147234 0)
(1.00269 -0.000813835 0)
(0.998049 0.00593454 0)
(0.996582 0.00665999 0)
(0.999222 0.00680225 0)
(0.999783 0.0105408 0)
(1.00137 0.0126164 0)
(1.00241 0.0129449 0)
(1.00408 0.0137907 0)
(0.998589 0.00759475 0)
(1.00609 0.000146694 0)
(1.00811 0.00176791 0)
(1.00071 -0.00197165 0)
(0.995325 0.00393447 0)
(1.00268 0.00928343 0)
(1.00532 0.00226269 0)
(0.99897 0.00745542 0)
(1.00492 0.00751696 0)
(1.00894 0.000893383 0)
(1.00078 0.00476741 0)
(1.00193 0.0022537 0)
(1.00303 -0.000578398 0)
(0.998657 0.00564882 0)
(0.996695 0.00717413 0)
(0.999549 0.0068228 0)
(1.00038 0.0100076 0)
(1.00164 0.0124448 0)
(1.0025 0.0128568 0)
(1.00429 0.0132826 0)
(0.998695 0.00716208 0)
(1.00583 0.000539748 0)
(1.00799 0.00144187 0)
(1.00075 -0.00130318 0)
(0.995708 0.00361895 0)
(1.00259 0.00914242 0)
(1.00522 0.00239842 0)
(0.999232 0.0070618 0)
(1.00456 0.00757396 0)
(1.00883 0.00103108 0)
(1.00094 0.00449302 0)
(1.00159 0.00296432 0)
(1.00329 -0.000243539 0)
(0.999314 0.00531466 0)
(0.996845 0.00758473 0)
(0.9998 0.00696978 0)
(1.00098 0.00949823 0)
(1.00198 0.0121728 0)
(1.00258 0.0127528 0)
(1.00442 0.0129352 0)
(0.998803 0.00671965 0)
(1.00555 0.000939408 0)
(1.00787 0.00112113 0)
(1.00078 -0.000675114 0)
(0.99608 0.003367 0)
(1.00251 0.00892231 0)
(1.00513 0.00259994 0)
(0.999503 0.00665173 0)
(1.00423 0.00760212 0)
(1.00868 0.00123807 0)
(1.00115 0.0042025 0)
(1.00128 0.00360443 0)
(1.00348 0.000190342 0)
(1.00001 0.00496518 0)
(0.99705 0.00788337 0)
(0.99998 0.00721089 0)
(1.00157 0.00903905 0)
(1.0024 0.0118226 0)
(1.0027 0.0126078 0)
(1.00449 0.0126841 0)
(0.998911 0.00627081 0)
(1.00526 0.00134082 0)
(1.00774 0.00080657 0)
(1.00082 -8.61241e-05 0)
(0.996434 0.00319648 0)
(1.00245 0.00862089 0)
(1.00502 0.00285317 0)
(0.999779 0.00625009 0)
(1.00393 0.0075744 0)
(1.0085 0.00149602 0)
(1.00139 0.00393055 0)
(1.00102 0.00415063 0)
(1.0036 0.000718205 0)
(1.00072 0.00463949 0)
(0.997325 0.00806597 0)
(1.0001 0.00752026 0)
(1.00211 0.0086556 0)
(1.00289 0.011408 0)
(1.00285 0.0124227 0)
(1.00452 0.0124561 0)
(0.999018 0.00581673 0)
(1.00497 0.0017421 0)
(1.0076 0.000510807 0)
(1.00087 0.000443952 0)
(0.996766 0.00311818 0)
(1.0024 0.00823999 0)
(1.00491 0.00314052 0)
(1.00005 0.00588298 0)
(1.00365 0.00748656 0)
(1.00829 0.00178299 0)
(1.00166 0.00368461 0)
(1.00081 0.00458752 0)
(1.00365 0.00129701 0)
(1.00142 0.00435797 0)
(0.997679 0.00812313 0)
(1.00016 0.00787064 0)
(1.00259 0.00836344 0)
(1.00342 0.0109271 0)
(1.00304 0.0122088 0)
(1.00452 0.0122295 0)
(0.999123 0.00535832 0)
(1.00466 0.00213866 0)
(1.00746 0.000246069 0)
(1.00093 0.000894647 0)
(0.997071 0.00313387 0)
(1.00237 0.00779794 0)
(1.0048 0.00342374 0)
(1.00032 0.00557851 0)
(1.0034 0.00733053 0)
(1.00806 0.00210644 0)
(1.00194 0.00347816 0)
(1.00067 0.00492206 0)
(1.00365 0.00189577 0)
(1.0021 0.00414379 0)
(0.99812 0.00806664 0)
(1.0002 0.00822488 0)
(1.00297 0.00818007 0)
(1.00399 0.0103953 0)
(1.00329 0.0119637 0)
(1.00451 0.0120192 0)
(0.999226 0.00490256 0)
(1.00434 0.00251683 0)
(1.00731 1.66835e-05 0)
(1.001 0.0012498 0)
(0.997347 0.00323575 0)
(1.00235 0.00732886 0)
(1.00469 0.00368089 0)
(1.00057 0.00534655 0)
(1.00319 0.00712712 0)
(1.00781 0.0024319 0)
(1.00224 0.00332746 0)
(1.0006 0.00519303 0)
(1.0036 0.00249862 0)
(1.00274 0.00400524 0)
(0.998641 0.00790772 0)
(1.00024 0.00853971 0)
(1.00326 0.00812073 0)
(1.00457 0.00984874 0)
(1.00361 0.0116458 0)
(1.00449 0.011849 0)
(0.999327 0.0044493 0)
(1.00402 0.00287779 0)
(1.00714 -0.00017077 0)
(1.00109 0.00150864 0)
(0.997594 0.00341004 0)
(1.00233 0.00685462 0)
(1.00459 0.00388895 0)
(1.00081 0.00519469 0)
(1.00301 0.00689625 0)
(1.00755 0.00273034 0)
(1.00254 0.00323297 0)
(1.00059 0.00540022 0)
(1.00351 0.00307984 0)
(1.00333 0.00393396 0)
(0.999236 0.00767878 0)
(1.0003 0.00879277 0)
(1.00343 0.00817048 0)
(1.00513 0.00933331 0)
(1.00402 0.0112138 0)
(1.0045 0.0117026 0)
(0.999426 0.00400379 0)
(1.00368 0.00321314 0)
(1.00695 -0.000297844 0)
(1.00119 0.00167028 0)
(0.997813 0.00363301 0)
(1.00232 0.00640459 0)
(1.0045 0.00401719 0)
(1.00102 0.00512251 0)
(1.00285 0.0066569 0)
(1.00729 0.00298879 0)
(1.00283 0.00316964 0)
(1.00063 0.00554714 0)
(1.00339 0.00364029 0)
(1.00385 0.00393032 0)
(0.999895 0.00740085 0)
(1.00041 0.00897025 0)
(1.00351 0.00829913 0)
(1.00561 0.00890578 0)
(1.0045 0.01068 0)
(1.00456 0.0115127 0)
(0.999521 0.00356936 0)
(1.00333 0.00351532 0)
(1.00675 -0.000357402 0)
(1.00132 0.00173219 0)
(0.998009 0.00388608 0)
(1.0023 0.00600363 0)
(1.00443 0.00406074 0)
(1.00122 0.00510302 0)
(1.00271 0.00644069 0)
(1.00703 0.00319228 0)
(1.00313 0.00312975 0)
(1.00074 0.00565969 0)
(1.00326 0.00417279 0)
(1.0043 0.00399247 0)
(1.0006 0.00709273 0)
(1.00059 0.0090558 0)
(1.00351 0.00846762 0)
(1.006 0.00859201 0)
(1.00505 0.0101012 0)
(1.00472 0.0112178 0)
(0.999614 0.00314918 0)
(1.00299 0.00377917 0)
(1.00651 -0.000349856 0)
(1.00147 0.00171525 0)
(0.998185 0.00414246 0)
(1.00226 0.00567199 0)
(1.00438 0.00401633 0)
(1.00141 0.00511395 0)
(1.00257 0.00627114 0)
(1.00677 0.00336661 0)
(1.00343 0.00309784 0)
(1.0009 0.00573092 0)
(1.00312 0.00467157 0)
(1.00466 0.00412858 0)
(1.00134 0.00677285 0)
(1.00084 0.00903395 0)
(1.00345 0.00864236 0)
(1.00627 0.00839109 0)
(1.0056 0.00954076 0)
(1.00499 0.0108021 0)
(0.999701 0.00275002 0)
(1.00264 0.00399172 0)
(1.00625 -0.000272353 0)
(1.00163 0.00163448 0)
(0.998349 0.00437574 0)
(1.0022 0.00543 0)
(1.00435 0.0038951 0)
(1.0016 0.00511777 0)
(1.00244 0.00616714 0)
(1.0065 0.00353545 0)
(1.00373 0.00305727 0)
(1.00113 0.00576175 0)
(1.00298 0.00513137 0)
(1.00493 0.0043323 0)
(1.00208 0.00645058 0)
(1.00119 0.00889796 0)
(1.00338 0.00879707 0)
(1.00642 0.00828794 0)
(1.00612 0.00904076 0)
(1.00538 0.0102895 0)
(0.999784 0.00237481 0)
(1.0023 0.0041521 0)
(1.00595 -0.000129612 0)
(1.00181 0.00150279 0)
(0.998509 0.00456296 0)
(1.00211 0.00528593 0)
(1.00433 0.00374014 0)
(1.0018 0.00508664 0)
(1.00232 0.0061219 0)
(1.00622 0.00372738 0)
(1.00402 0.00302466 0)
(1.00142 0.00573143 0)
(1.00285 0.00552871 0)
(1.0051 0.004589 0)
(1.00279 0.00614994 0)
(1.00163 0.00865002 0)
(1.00332 0.0088894 0)
(1.00645 0.00825431 0)
(1.00655 0.00863219 0)
(1.00584 0.00974288 0)
(0.999862 0.00202908 0)
(1.00197 0.00424757 0)
(1.00562 7.89806e-05 0)
(1.00199 0.00133863 0)
(0.998676 0.00469064 0)
(1.00199 0.00523573 0)
(1.0043 0.00358217 0)
(1.00202 0.00500849 0)
(1.00221 0.00610873 0)
(1.00592 0.00395709 0)
(1.00429 0.00302286 0)
(1.00177 0.0056347 0)
(1.00276 0.00584833 0)
(1.00517 0.00488374 0)
(1.00344 0.00590589 0)
(1.00214 0.00831514 0)
(1.00331 0.00889315 0)
(1.00639 0.00826541 0)
(1.00688 0.00832259 0)
(1.00632 0.00922295 0)
(0.999934 0.00171489 0)
(1.00166 0.00427731 0)
(1.00526 0.000341254 0)
(1.00217 0.00116678 0)
(0.998858 0.00472767 0)
(1.00184 0.00526763 0)
(1.00427 0.00345617 0)
(1.00225 0.0048734 0)
(1.00213 0.00609533 0)
(1.0056 0.00422135 0)
(1.00452 0.00307052 0)
(1.00216 0.00548034 0)
(1.00272 0.00607028 0)
(1.00517 0.00519236 0)
(1.00401 0.0057366 0)
(1.00271 0.0079265 0)
(1.00337 0.00879783 0)
(1.00628 0.00829236 0)
(1.0071 0.0080992 0)
(1.00676 0.00877079 0)
(1 0.00143746 0)
(1.00136 0.00423544 0)
(1.00486 0.000648896 0)
(1.00234 0.00100778 0)
(0.999066 0.00466794 0)
(1.00167 0.00536032 0)
(1.00421 0.00339048 0)
(1.0025 0.00468654 0)
(1.00209 0.00605066 0)
(1.00527 0.00450767 0)
(1.0047 0.00317422 0)
(1.00259 0.0052881 0)
(1.00274 0.00618479 0)
(1.00511 0.00548793 0)
(1.00447 0.00564484 0)
(1.00331 0.00752291 0)
(1.00351 0.00860778 0)
(1.00614 0.00830752 0)
(1.00722 0.00794223 0)
(1.00713 0.00839222 0)
(1.00006 0.00119672 0)
(1.0011 0.00412348 0)
(1.00445 0.000987295 0)
(1.00249 0.000889496 0)
(0.999304 0.00451243 0)
(1.0015 0.00547225 0)
(1.00411 0.00340902 0)
(1.00275 0.0044801 0)
(1.0021 0.00595699 0)
(1.00494 0.00478662 0)
(1.00482 0.00333553 0)
(1.00302 0.00509475 0)
(1.00283 0.00619754 0)
(1.00503 0.0057482 0)
(1.00483 0.00563128 0)
(1.00389 0.00714234 0)
(1.00375 0.00833081 0)
(1.006 0.00828196 0)
(1.00724 0.00783721 0)
(1.00742 0.00807617 0)
(1.00011 0.000995214 0)
(1.00086 0.00394692 0)
(1.00402 0.00133419 0)
(1.00261 0.000832158 0)
(0.999574 0.00427503 0)
(1.00134 0.00556659 0)
(1.00398 0.00350845 0)
(1.003 0.00428875 0)
(1.00216 0.00581856 0)
(1.00462 0.00503972 0)
(1.00487 0.00354233 0)
(1.00344 0.00492588 0)
(1.003 0.00612777 0)
(1.00494 0.00595167 0)
(1.00508 0.00567534 0)
(1.00443 0.00681451 0)
(1.00406 0.00798292 0)
(1.00592 0.00818341 0)
(1.0072 0.00776101 0)
(1.00763 0.00780948 0)
(1.00016 0.000829156 0)
(1.00066 0.00372406 0)
(1.00359 0.00166232 0)
(1.00269 0.000850804 0)
(0.999869 0.0039857 0)
(1.0012 0.00561566 0)
(1.00381 0.0036731 0)
(1.00322 0.00413479 0)
(1.00227 0.00563256 0)
(1.00434 0.00524349 0)
(1.00486 0.0037795 0)
(1.00382 0.00479614 0)
(1.00322 0.00599592 0)
(1.00487 0.00608997 0)
(1.00525 0.00575697 0)
(1.0049 0.00657108 0)
(1.00443 0.00761613 0)
(1.0059 0.00800541 0)
(1.00711 0.00769189 0)
(1.00776 0.00760089 0)
(1.0002 0.000693104 0)
(1.00049 0.00346868 0)
(1.00316 0.00195678 0)
(1.00272 0.000951463 0)
(1.00018 0.00367036 0)
(1.00111 0.00559519 0)
(1.00361 0.00386904 0)
(1.00341 0.00403888 0)
(1.00242 0.00541312 0)
(1.0041 0.00539079 0)
(1.00481 0.00402847 0)
(1.00415 0.00471086 0)
(1.00349 0.00581974 0)
(1.00485 0.00614773 0)
(1.00535 0.00583378 0)
(1.00528 0.00638751 0)
(1.00481 0.0072624 0)
(1.00597 0.00774843 0)
(1.00702 0.00758164 0)
(1.0078 0.00743834 0)
(1.00023 0.000595228 0)
(1.00036 0.00319153 0)
(1.00276 0.00218442 0)
(1.0027 0.00110516 0)
(1.0005 0.0033595 0)
(1.00107 0.0055022 0)
(1.0034 0.00407388 0)
(1.00355 0.00401717 0)
(1.0026 0.00519506 0)
(1.00391 0.00547642 0)
(1.00471 0.00427914 0)
(1.00442 0.00469204 0)
(1.00378 0.00564709 0)
(1.00486 0.00614873 0)
(1.0054 0.00591132 0)
(1.00558 0.00627117 0)
(1.00517 0.0069635 0)
(1.00608 0.0074679 0)
(1.00698 0.00741426 0)
(1.00779 0.0073008 0)
(1.00025 0.000509803 0)
(1.00026 0.00292946 0)
(1.00239 0.00238083 0)
(1.00265 0.00130405 0)
(1.00081 0.00306253 0)
(1.00109 0.00532491 0)
(1.0032 0.00423957 0)
(1.00364 0.00403172 0)
(1.0028 0.00497872 0)
(1.00378 0.00548281 0)
(1.0046 0.00447795 0)
(1.00463 0.00468797 0)
(1.00407 0.00545212 0)
(1.00494 0.00606447 0)
(1.00545 0.00593993 0)
(1.00581 0.00618382 0)
(1.00549 0.00669784 0)
(1.00623 0.00718663 0)
(1.00697 0.00719535 0)
(1.00776 0.00714301 0)
(1.00027 0.000447381 0)
(1.00019 0.00264304 0)
(1.00205 0.00250723 0)
(1.00255 0.00153084 0)
(1.00109 0.00284112 0)
(1.00116 0.00513252 0)
(1.00301 0.00437674 0)
(1.00369 0.00408993 0)
(1.003 0.00479312 0)
(1.0037 0.00545673 0)
(1.00447 0.00465083 0)
(1.00476 0.00472854 0)
(1.00436 0.00528787 0)
(1.00505 0.00594226 0)
(1.0055 0.00592713 0)
(1.00597 0.00611905 0)
(1.00577 0.00647323 0)
(1.00639 0.00692233 0)
(1.00699 0.00696095 0)
(1.00775 0.00693348 0)
(1.00028 0.000412212 0)
(1.00014 0.00237024 0)
(1.00175 0.00252371 0)
(1.00243 0.00175744 0)
(1.00135 0.00269691 0)
(1.00126 0.00492358 0)
(1.00284 0.00446432 0)
(1.00369 0.00417157 0)
(1.00319 0.0046348 0)
(1.00367 0.00538162 0)
(1.00436 0.00478106 0)
(1.00485 0.00477538 0)
(1.00461 0.00514063 0)
(1.0052 0.00578266 0)
(1.00557 0.00585876 0)
(1.0061 0.00604616 0)
(1.006 0.00628223 0)
(1.00654 0.0066735 0)
(1.00702 0.00674552 0)
(1.00774 0.00670515 0)
(1.00029 0.000382128 0)
(1.00012 0.00214135 0)
(1.00151 0.0025112 0)
(1.0023 0.00200005 0)
(1.00159 0.00263164 0)
(1.00141 0.00469335 0)
(1.00272 0.00448538 0)
(1.00367 0.00423258 0)
(1.00337 0.00448882 0)
(1.00369 0.00526919 0)
(1.00427 0.00487211 0)
(1.00489 0.00483812 0)
(1.00483 0.00503136 0)
(1.00537 0.00561459 0)
(1.00567 0.00575502 0)
(1.00621 0.00595763 0)
(1.0062 0.00612047 0)
(1.00671 0.00643357 0)
(1.00707 0.0065441 0)
(1.00776 0.00649181 0)
(1.00029 0.000356639 0)
(1.0001 0.00195275 0)
(1.00131 0.00252262 0)
(1.00217 0.0022363 0)
(1.00178 0.00259982 0)
(1.00157 0.00445428 0)
(1.00263 0.00444371 0)
(1.00362 0.00425891 0)
(1.00352 0.00433651 0)
(1.00374 0.00511701 0)
(1.0042 0.00489824 0)
(1.00489 0.00488725 0)
(1.00499 0.00493401 0)
(1.00553 0.00542595 0)
(1.00579 0.00559545 0)
(1.00631 0.00582589 0)
(1.00635 0.00595592 0)
(1.00685 0.00619195 0)
(1.00712 0.00631975 0)
(1.00774 0.00629133 0)
(1.00029 0.000340249 0)
(1.00011 0.00181666 0)
(1.00115 0.00249539 0)
(1.00202 0.00240195 0)
(1.00192 0.00255203 0)
(1.00173 0.00419006 0)
(1.00256 0.00433661 0)
(1.00355 0.00426403 0)
(1.00363 0.00419915 0)
(1.00382 0.00495001 0)
(1.00416 0.00488568 0)
(1.00486 0.00493064 0)
(1.0051 0.00487736 0)
(1.00568 0.00526695 0)
(1.00592 0.00542613 0)
(1.00642 0.00568007 0)
(1.00648 0.00580594 0)
(1.00698 0.00598723 0)
(1.00719 0.0060928 0)
(1.00773 0.0061112 0)
(1.00028 0.000335241 0)
(1.00011 0.00168794 0)
(1.00101 0.00241571 0)
(1.00188 0.00253154 0)
(1.00202 0.00256123 0)
(1.00189 0.0039904 0)
(1.00254 0.00424208 0)
(1.00347 0.00429703 0)
(1.00372 0.00412201 0)
(1.00392 0.00478764 0)
(1.00417 0.00483405 0)
(1.00482 0.00495088 0)
(1.00517 0.00484027 0)
(1.00579 0.00512318 0)
(1.00604 0.00524545 0)
(1.00653 0.00548948 0)
(1.00659 0.00562415 0)
(1.00707 0.00578746 0)
(1.00726 0.00585032 0)
(1.00772 0.0059031 0)
(1.00028 0.000318047 0)
(1.00012 0.00159105 0)
(1.00092 0.00235983 0)
(1.00175 0.00265221 0)
(1.00209 0.00258705 0)
(1.00203 0.00379901 0)
(1.00253 0.00409909 0)
(1.00338 0.00427794 0)
(1.00376 0.00404146 0)
(1.00401 0.00459638 0)
(1.0042 0.00471323 0)
(1.00478 0.0049154 0)
(1.00518 0.00479455 0)
(1.00585 0.00498832 0)
(1.00614 0.00506938 0)
(1.00665 0.00527983 0)
(1.00672 0.00541234 0)
(1.00716 0.00559018 0)
(1.00733 0.00562305 0)
(1.00774 0.00567576 0)
(1.00027 0.000314313 0)
(1.00013 0.00150675 0)
(1.00084 0.0022702 0)
(1.00163 0.00270471 0)
(1.00212 0.00259777 0)
(1.00215 0.00362882 0)
(1.00256 0.00395251 0)
(1.00331 0.00424624 0)
(1.00377 0.00398865 0)
(1.0041 0.00443559 0)
(1.00426 0.00455924 0)
(1.00477 0.00484011 0)
(1.00517 0.00474415 0)
(1.00588 0.0048738 0)
(1.00621 0.00490577 0)
(1.00673 0.00508479 0)
(1.00683 0.0051791 0)
(1.00722 0.00537144 0)
(1.00736 0.00540851 0)
(1.00774 0.0054373 0)
(1.00026 0.000306258 0)
(1.00013 0.0014307 0)
(1.00079 0.00217674 0)