/*--------------------------------*- C++ -*----------------------------------*\
| =========                 |                                                 |
| \\      /  F ield         | OpenFOAM: The Open Source CFD Toolbox           |
|  \\    /   O peration     | Version:  2506                                  |
|   \\  /    A nd           | Website:  www.openfoam.com                      |
|    \\/     M anipulation  |                                                 |
\*---------------------------------------------------------------------------*/
FoamFile
{
    version     2.0;
    format      ascii;
    arch        "LSB;label=32;scalar=64";
    class       volScalarField;
    location    "5.95";
    object      p;
}
// * * * * * * * * * * * * * * * * * * * * * * * * * * * * * * * * * * * * * //

dimensions      [0 2 -2 0 0 0 0];

internalField   nonuniform List<scalar> 
9600
(
-1.7244e-10
-0.00121106
-0.00502666
-0.00409372
-0.00312489
-0.00338599
-0.00314851
-0.00133169
-0.00524819
-0.0063185
-0.0101772
-0.0138623
-0.0152009
-0.0146481
-0.0150108
-0.0142136
-0.0165855
-0.0152008
-0.0147567
-0.0132078
2.39943e-06
-0.00122805
-0.00500983
-0.00413112
-0.00313694
-0.00334234
-0.00315612
-0.00138109
-0.00523681
-0.00641085
-0.0101646
-0.0138768
-0.0151922
-0.0146208
-0.0150095
-0.0142111
-0.0164258
-0.0152202
-0.0147273
-0.0133335
4.05927e-06
-0.0012491
-0.00498623
-0.00417464
-0.00313978
-0.0032843
-0.00318458
-0.00143325
-0.00522526
-0.00649632
-0.0101375
-0.0138795
-0.0151663
-0.0145883
-0.0150028
-0.0142122
-0.0163217
-0.0152532
-0.014714
-0.0135125
4.04124e-06
-0.00127301
-0.00497405
-0.00421864
-0.00313027
-0.00324842
-0.00322519
-0.00149013
-0.00522324
-0.00659213
-0.0101137
-0.0138521
-0.0151342
-0.0145582
-0.0149915
-0.0142283
-0.016225
-0.0152909
-0.0147222
-0.0136993
2.45053e-06
-0.00130192
-0.00497364
-0.00425811
-0.00310773
-0.00323978
-0.00327459
-0.00155419
-0.00522859
-0.00670163
-0.0100944
-0.0137968
-0.0151018
-0.0145364
-0.0149817
-0.0142564
-0.0161322
-0.0153335
-0.0147456
-0.0138807
-6.6096e-07
-0.00133692
-0.00498171
-0.00428666
-0.0030735
-0.00325612
-0.0033299
-0.0016238
-0.00523836
-0.00682372
-0.0100735
-0.0137201
-0.0150711
-0.0145215
-0.014974
-0.0142879
-0.016044
-0.015377
-0.0147787
-0.0140601
-5.13284e-06
-0.00137835
-0.00499662
-0.00430325
-0.00303191
-0.00329262
-0.00338657
-0.00169772
-0.00525163
-0.00695471
-0.0100476
-0.0136307
-0.0150413
-0.0145108
-0.0149664
-0.0143188
-0.015961
-0.0154175
-0.0148224
-0.0142419
-1.07398e-05
-0.00142619
-0.00501713
-0.00431003
-0.00298866
-0.00334267
-0.00344217
-0.00177599
-0.00526755
-0.00709125
-0.0100176
-0.0135352
-0.0150102
-0.0145015
-0.0149582
-0.014349
-0.0158824
-0.0154543
-0.0148809
-0.0144256
-1.73012e-05
-0.00147995
-0.00504179
-0.00431078
-0.0029481
-0.0034001
-0.00349778
-0.00185899
-0.00528509
-0.00723147
-0.00998562
-0.0134372
-0.0149758
-0.0144918
-0.0149508
-0.0143769
-0.0158085
-0.0154914
-0.0149531
-0.0146081
-2.47138e-05
-0.00153907
-0.00506919
-0.00430906
-0.00291214
-0.00346112
-0.0035562
-0.00194681
-0.00530335
-0.00737446
-0.00995339
-0.0133372
-0.0149369
-0.0144811
-0.0149454
-0.0144013
-0.0157418
-0.0155307
-0.0150326
-0.0147905
-3.29451e-05
-0.00160302
-0.00509824
-0.0043073
-0.00288091
-0.00352422
-0.00361969
-0.00203923
-0.00532178
-0.00751981
-0.00992184
-0.0132347
-0.0148934
-0.0144685
-0.0149426
-0.0144222
-0.015684
-0.0155709
-0.0151149
-0.0149778
-4.20265e-05
-0.00167129
-0.00512812
-0.00430688
-0.00285385
-0.00358895
-0.00368935
-0.0021359
-0.00534025
-0.00766731
-0.00989143
-0.0131288
-0.014846
-0.014453
-0.0149435
-0.0144404
-0.0156334
-0.0156121
-0.0151993
-0.0151719
-5.20369e-05
-0.0017435
-0.00515819
-0.00430854
-0.0028303
-0.00365503
-0.00376537
-0.00223656
-0.00535907
-0.00781659
-0.00986244
-0.0130191
-0.0147957
-0.0144336
-0.0149489
-0.0144556
-0.015588
-0.0156583
-0.0152847
-0.0153691
-6.30848e-05
-0.00181926
-0.00518802
-0.00431271
-0.00280977
-0.00372204
-0.00384752
-0.00234111
-0.00537881
-0.00796694
-0.00983533
-0.0129056
-0.0147438
-0.0144094
-0.0149586
-0.0144683
-0.0155462
-0.0157135
-0.0153685
-0.0155636
-7.52995e-05
-0.00189818
-0.0052173
-0.00431971
-0.00279198
-0.00378938
-0.00393554
-0.00244957
-0.00539995
-0.00811743
-0.00981075
-0.0127886
-0.0146921
-0.0143801
-0.0149716
-0.0144802
-0.0155057
-0.0157808
-0.0154505
-0.0157505
-8.88298e-05
-0.00197989
-0.00524583
-0.00432981
-0.00277688
-0.0038563
-0.0040293
-0.00256187
-0.00542281
-0.00826711
-0.00978949
-0.0126687
-0.0146419
-0.0143457
-0.0149866
-0.0144939
-0.0154626
-0.015861
-0.0155335
-0.0159247
-0.000103839
-0.00206408
-0.0052735
-0.0043432
-0.00276461
-0.00392209
-0.00412878
-0.00267787
-0.0054477
-0.00841515
-0.00977251
-0.0125462
-0.0145939
-0.0143068
-0.0150016
-0.0145124
-0.0154134
-0.0159532
-0.0156225
-0.0160802
-0.000120506
-0.00215048
-0.00530033
-0.00435996
-0.00275554
-0.00398608
-0.00423401
-0.00279745
-0.00547488
-0.00856085
-0.00976075
-0.0124212
-0.014549
-0.0142642
-0.015014
-0.0145398
-0.015357
-0.0160545
-0.0157229
-0.0162127
-0.000139041
-0.00223888
-0.00532639
-0.00438008
-0.00275018
-0.00404777
-0.00434507
-0.00292047
-0.00550458
-0.00870365
-0.00975501
-0.0122935
-0.0145082
-0.0142187
-0.01502
-0.0145798
-0.0152949
-0.0161597
-0.01584
-0.0163202
-0.000159692
-0.00232905
-0.00535183
-0.00440347
-0.00274914
-0.00410675
-0.00446204
-0.00304687
-0.00553694
-0.0088431
-0.00975598
-0.0121632
-0.0144716
-0.0141726
-0.0150159
-0.0146343
-0.0152301
-0.0162628
-0.0159779
-0.0164036
-0.000182729
-0.00242077
-0.00537687
-0.00443
-0.00275312
-0.00416258
-0.00458487
-0.0031768
-0.00557207
-0.00897869
-0.00976438
-0.0120308
-0.0144382
-0.0141291
-0.0149993
-0.0147034
-0.0151669
-0.0163569
-0.0161387
-0.0164677
-0.00020846
-0.00251374
-0.00540181
-0.00445946
-0.00276281
-0.00421497
-0.00471349
-0.00331041
-0.00561005
-0.00911019
-0.0097807
-0.0118967
-0.0144069
-0.0140907
-0.014969
-0.0147858
-0.0151099
-0.0164354
-0.0163228
-0.0165203
-0.000237236
-0.00260765
-0.00542701
-0.00449164
-0.00277881
-0.00426366
-0.0048478
-0.00344799
-0.00565077
-0.00923776
-0.00980509
-0.0117612
-0.0143769
-0.01406
-0.0149241
-0.0148789
-0.0150644
-0.0164926
-0.0165283
-0.0165731
-0.000269451
-0.0027021
-0.00545289
-0.00452631
-0.00280175
-0.00430845
-0.00498757
-0.00359006
-0.00569388
-0.00936177
-0.00983768
-0.011624
-0.0143473
-0.0140395
-0.0148646
-0.0149794
-0.015036
-0.0165238
-0.0167505
-0.0166398
-0.000305536
-0.00279664
-0.00547993
-0.0045632
-0.0028322
-0.00434929
-0.00513235
-0.00373736
-0.0057389
-0.00948222
-0.00987896
-0.0114855
-0.0143164
-0.0140318
-0.0147906
-0.015083
-0.0150311
-0.0165266
-0.0169801
-0.0167342
-0.000345966
-0.00289074
-0.00550871
-0.00460207
-0.00287062
-0.00438634
-0.00528158
-0.00389076
-0.00578502
-0.00959926
-0.00992974
-0.0113457
-0.0142826
-0.0140396
-0.0147031
-0.0151841
-0.0150555
-0.016502
-0.0172038
-0.0168689
-0.000391246
-0.00298382
-0.00553982
-0.00464275
-0.00291729
-0.00441981
-0.00543454
-0.00405117
-0.00583126
-0.00971327
-0.0099909
-0.0112048
-0.0142444
-0.0140649
-0.0146035
-0.0152766
-0.0151143
-0.0164545
-0.0174042
-0.0170522
-0.000441941
-0.00307524
-0.00557383
-0.00468517
-0.00297238
-0.00445016
-0.00559003
-0.00421984
-0.00587699
-0.00982356
-0.0100636
-0.0110633
-0.0141996
-0.0141101
-0.0144948
-0.015353
-0.0152109
-0.0163951
-0.0175635
-0.0172812
-0.000498674
-0.00316433
-0.00561132
-0.00472915
-0.00303614
-0.00447817
-0.00574649
-0.00439827
-0.00592183
-0.00992855
-0.0101495
-0.0109224
-0.0141453
-0.0141774
-0.0143825
-0.0154048
-0.0153442
-0.0163403
-0.0176673
-0.0175401
-0.000562071
-0.00325038
-0.00565281
-0.00477471
-0.00310859
-0.00450484
-0.00590214
-0.00458767
-0.00596577
-0.0100266
-0.0102499
-0.0107836
-0.0140771
-0.0142683
-0.014274
-0.0154234
-0.0155084
-0.0163077
-0.0177083
-0.0178007
-0.000632816
-0.00333266
-0.00569886
-0.00482206
-0.00318923
-0.00453153
-0.00605466
-0.00478892
-0.00600989
-0.0101156
-0.0103661
-0.0106497
-0.0139909
-0.0143821
-0.0141781
-0.0154023
-0.0156924
-0.016314
-0.0176919
-0.01803
-0.000711614
-0.00341046
-0.00574994
-0.00487139
-0.00327745
-0.00455998
-0.00620152
-0.00500241
-0.0060562
-0.010193
-0.0104986
-0.0105248
-0.0138825
-0.0145167
-0.014106
-0.0153377
-0.0158801
-0.016371
-0.0176377
-0.0181982
-0.000799207
-0.00348313
-0.00580613
-0.00492321
-0.00337242
-0.00459225
-0.00634056
-0.00522763
-0.00610698
-0.0102558
-0.010647
-0.0104143
-0.0137482
-0.0146668
-0.0140693
-0.015231
-0.0160532
-0.0164817
-0.0175736
-0.018287
-0.000896357
-0.00355007
-0.00586734
-0.00497838
-0.00347273
-0.00463094
-0.00647022
-0.00546295
-0.00616508
-0.0103017
-0.0108096
-0.0103244
-0.0135867
-0.0148253
-0.0140782
-0.0150906
-0.0161943
-0.0166398
-0.0175258
-0.0182981
-0.00100376
-0.0036108
-0.00593332
-0.00503788
-0.00357656
-0.00467841
-0.00658982
-0.00570587
-0.00623381
-0.0103294
-0.0109829
-0.0102618
-0.0133997
-0.0149819
-0.0141383
-0.0149291
-0.0162891
-0.0168321
-0.0175129
-0.0182523
-0.00112211
-0.00366509
-0.00600324
-0.005103
-0.00368683
-0.00473635
-0.00669987
-0.00595306
-0.00631615
-0.0103396
-0.0111622
-0.0102326
-0.013192
-0.0151245
-0.0142504
-0.0147614
-0.0163277
-0.0170429
-0.0175435
-0.0181762
-0.00125209
-0.00371286
-0.00607571
-0.00517559
-0.00379285
-0.00480545
-0.0068023
-0.00620061
-0.00641442
-0.0103346
-0.0113417
-0.010241
-0.0129702
-0.0152414
-0.0144124
-0.0146054
-0.0163036
-0.0172559
-0.0176207
-0.0180915
-0.00139425
-0.0037543
-0.00614895
-0.00525832
-0.00389616
-0.00488474
-0.00690017
-0.00644472
-0.00652967
-0.0103174
-0.0115157
-0.0102887
-0.0127438
-0.0153231
-0.014618
-0.0144801
-0.0162145
-0.0174515
-0.0177476
-0.0180155
-0.00154894
-0.00379011
-0.00622053
-0.00535371
-0.00399747
-0.00497228
-0.00699716
-0.00668213
-0.00666135
-0.0102923
-0.01168
-0.0103754
-0.012523
-0.0153626
-0.0148565
-0.0144025
-0.0160659
-0.0176063
-0.0179247
-0.0179677
-0.00171642
-0.00382143
-0.00628734
-0.0054639
-0.0040977
-0.00506544
-0.00709683
-0.00691121
-0.00680746
-0.0102632
-0.0118327
-0.0104995
-0.0123162
-0.0153549
-0.0151149
-0.0143869
-0.0158734
-0.0176956
-0.0181399
-0.0179718
-0.00189677
-0.00384972
-0.00634601
-0.00559067
-0.00419922
-0.00516021
-0.00720222
-0.0071324
-0.00696446
-0.0102341
-0.0119731
-0.0106573
-0.0121305
-0.0152981
-0.0153802
-0.0144409
-0.0156599
-0.0177014
-0.0183653
-0.0180481
-0.00208972
-0.00387681
-0.00639326
-0.00573479
-0.00430551
-0.00525258
-0.00731496
-0.00734713
-0.00712855
-0.0102075
-0.0121008
-0.0108446
-0.0119736
-0.0151938
-0.0156377
-0.0145656
-0.0154512
-0.0176177
-0.018565
-0.0181998
-0.00229482
-0.00390498
-0.00642603
-0.00589579
-0.00442115
-0.00533913
-0.00743441
-0.00755943
-0.00729695
-0.0101827
-0.0122171
-0.0110588
-0.0118523
-0.0150465
-0.0158714
-0.0147575
-0.0152723
-0.0174501
-0.0187064
-0.0184081
-0.00251134
-0.00393663
-0.00644174
-0.00607243
-0.00455152
-0.0054162
-0.00755777
-0.00777572
-0.00746889
-0.0101569
-0.0123231
-0.0112985
-0.0117724
-0.0148617
-0.0160642
-0.0150077
-0.0151466
-0.0172145
-0.0187641
-0.0186388
-0.00273809
-0.00397438
-0.00643916
-0.00626195
-0.00470227
-0.00548244
-0.00768085
-0.00800135
-0.00764668
-0.010127
-0.0124152
-0.0115622
-0.0117413
-0.0146466
-0.0162003
-0.0153005
-0.0150953
-0.0169386
-0.0187223
-0.0188513
-0.00297361
-0.004021
-0.0064182
-0.00645972
-0.00487914
-0.00553943
-0.00779677
-0.00823948
-0.00783527
-0.0100913
-0.0124871
-0.0118449
-0.011766
-0.0144128
-0.0162666
-0.015613
-0.0151323
-0.0166571
-0.0185791
-0.0190082
-0.00321594
-0.00407914
-0.00638003
-0.00666036
-0.00508669
-0.00559011
-0.00789707
-0.00849046
-0.00804231
-0.0100518
-0.0125309
-0.0121368
-0.0118515
-0.0141779
-0.0162553
-0.015917
-0.0152592
-0.0164073
-0.0183507
-0.0190803
-0.00346262
-0.00415161
-0.00632753
-0.00685717
-0.00532793
-0.00564132
-0.00797338
-0.00875008
-0.00827642
-0.0100154
-0.0125378
-0.0124246
-0.0119987
-0.0139625
-0.0161679
-0.0161856
-0.0154631
-0.0162234
-0.0180686
-0.0190529
-0.00371095
-0.00424104
-0.00626549
-0.00704185
-0.00560295
-0.00570447
-0.00801982
-0.00901021
-0.00854245
-0.00999219
-0.0125042
-0.0126928
-0.0122015
-0.0137869
-0.0160165
-0.0163953
-0.01572
-0.0161279
-0.0177692
-0.0189294
-0.00395806
-0.00434944
-0.00620042
-0.00720636
-0.00590858
-0.00579297
-0.00803744
-0.00925688
-0.00883818
-0.00999514
-0.0124353
-0.0129257
-0.012446
-0.0136688
-0.0158228
-0.0165291
-0.0159989
-0.0161271
-0.0174898
-0.0187301
-0.00420148
-0.00447828
-0.00613953
-0.00734463
-0.00623838
-0.00591877
-0.00803272
-0.00947427
-0.00915534
-0.0100368
-0.0123417
-0.013111
-0.0127146
-0.013618
-0.0156132
-0.01658
-0.0162662
-0.0162119
-0.0172635
-0.018486
-0.0044393
-0.00462771
-0.0060906
-0.00745263
-0.00658168
-0.00609068
-0.00801629
-0.00965139
-0.00948348
-0.0101246
-0.0122369
-0.013242
-0.0129893
-0.0136348
-0.0154136
-0.0165555
-0.016491
-0.0163585
-0.0171116
-0.0182289
-0.00467016
-0.00479632
-0.00606137
-0.00752928
-0.00692471
-0.00631371
-0.00800472
-0.00978324
-0.00980775
-0.0102582
-0.0121372
-0.0133188
-0.0132521
-0.0137111
-0.0152441
-0.0164747
-0.0166527
-0.0165339
-0.0170407
-0.0179905
-0.00489313
-0.00498153
-0.00605765
-0.00757662
-0.00725422
-0.00658697
-0.00801714
-0.00987198
-0.0101108
-0.0104309
-0.0120579
-0.0133482
-0.0134865
-0.0138339
-0.0151188
-0.0163601
-0.016746
-0.0167055
-0.0170395
-0.0177967
-0.00510781
-0.0051801
-0.00608313
-0.00760113
-0.00756111
-0.00690542
-0.00806727
-0.00992455
-0.0103797
-0.0106319
-0.012009
-0.0133408
-0.0136819
-0.013987
-0.015046
-0.0162336
-0.016777
-0.0168476
-0.0170824
-0.0176603
-0.00531416
-0.00538798
-0.00614048
-0.0076127
-0.00783903
-0.00725752
-0.00816283
-0.00995346
-0.0106094
-0.0108487
-0.0119947
-0.0133083
-0.0138325
-0.0141524
-0.0150255
-0.0161158
-0.0167595
-0.0169471
-0.017141
-0.017575
-0.00551297
-0.00559974
-0.00623054
-0.00762476
-0.00808386
-0.00762448
-0.00830566
-0.00997425
-0.010799
-0.0110703
-0.012016
-0.0132642
-0.0139374
-0.014314
-0.0150497
-0.0160222
-0.0167116
-0.017003
-0.0171945
-0.0175209
-0.00570625
-0.00581192
-0.00635204
-0.00764985
-0.00829595
-0.00798666
-0.008492
-0.0100017
-0.010951
-0.0112868
-0.0120716
-0.0132208
-0.0139999
-0.0144584
-0.0151067
-0.015961
-0.01665
-0.0170218
-0.0172346
-0.0174824
-0.00589669
-0.00602532
-0.00649904
-0.00769218
-0.00847809
-0.00833299
-0.00871224
-0.0100446
-0.0110719
-0.0114919
-0.0121579
-0.0131885
-0.014027
-0.0145749
-0.0151824
-0.0159346
-0.0165899
-0.0170109
-0.0172584
-0.0174536
-0.00608616
-0.00623793
-0.00666816
-0.00775511
-0.0086354
-0.00865753
-0.0089563
-0.010107
-0.0111685
-0.0116814
-0.0122699
-0.0131756
-0.0140286
-0.0146565
-0.0152604
-0.0159399
-0.0165464
-0.0169806
-0.0172625
-0.0174317
-0.00627625
-0.00644979
-0.00685419
-0.00783931
-0.00877535
-0.00895668
-0.0092154
-0.0101933
-0.0112476
-0.0118509
-0.0124005
-0.0131875
-0.0140168
-0.0147023
-0.0153251
-0.0159638
-0.0165281
-0.0169476
-0.0172464
-0.0174104
-0.00646868
-0.00666069
-0.00705204
-0.00794487
-0.00890475
-0.00922871
-0.00948168
-0.0103058
-0.0113166
-0.0119959
-0.01254
-0.0132263
-0.0140035
-0.0147188
-0.0153665
-0.0159874
-0.0165291
-0.0169279
-0.0172186
-0.0173836
-0.00666424
-0.00687082
-0.00725797
-0.00807116
-0.00902898
-0.00947442
-0.00974782
-0.0104426
-0.0113833
-0.0121146
-0.0126765
-0.0132902
-0.0139994
-0.014716
-0.0153846
-0.0159986
-0.0165327
-0.0169239
-0.017192
-0.0173471
-0.00686322
-0.00707988
-0.00746992
-0.00821659
-0.00915244
-0.00969519
-0.0100075
-0.0105994
-0.0114553
-0.0122107
-0.0128004
-0.013371
-0.014012
-0.0147021
-0.015383
-0.0159974
-0.0165264
-0.0169241
-0.0171748
-0.0173044
-0.00706613
-0.00728863
-0.00768459
-0.00837888
-0.0092796
-0.00989394
-0.0102556
-0.0107717
-0.0115363
-0.0122898
-0.0129057
-0.0134567
-0.0140428
-0.014686
-0.0153615
-0.0159838
-0.016509
-0.0169183
-0.0171686
-0.017269
-0.00727313
-0.00749705
-0.00790056
-0.00855511
-0.00941397
-0.0100752
-0.0104879
-0.0109535
-0.011629
-0.0123574
-0.01299
-0.013537
-0.014087
-0.0146789
-0.0153238
-0.0159502
-0.0164788
-0.016897
-0.0171614
-0.0172465
-0.00748411
-0.00770665
-0.00811521
-0.00874258
-0.00955747
-0.0102425
-0.0107017
-0.0111389
-0.0117357
-0.012421
-0.0130541
-0.0136025
-0.0141313
-0.0146841
-0.015284
-0.0158969
-0.0164328
-0.0168562
-0.0171387
-0.0172261
-0.00769836
-0.00791686
-0.00832851
-0.00893766
-0.00971158
-0.0104017
-0.0108968
-0.0113207
-0.0118545
-0.0124869
-0.0131033
-0.0136503
-0.0141629
-0.0146866
-0.0152455
-0.0158272
-0.0163667
-0.0167984
-0.0170964
-0.0171987
-0.00791583
-0.00812905
-0.00854008
-0.00913686
-0.00987523
-0.0105578
-0.0110767
-0.0114945
-0.0119784
-0.0125556
-0.0131419
-0.0136832
-0.0141826
-0.0146779
-0.0152028
-0.0157448
-0.016272
-0.0167131
-0.0170248
-0.0171501
-0.00813566
-0.00834542
-0.00875015
-0.00933815
-0.0100472
-0.0107131
-0.0112443
-0.0116607
-0.0121053
-0.0126268
-0.0131712
-0.0136964
-0.0141864
-0.0146537
-0.0151463
-0.0156545
-0.0161554
-0.0165968
-0.0169174
-0.0170627
-0.00835608
-0.00855986
-0.00896002
-0.00954
-0.0102266
-0.0108727
-0.0114027
-0.0118173
-0.0122334
-0.0127015
-0.0131965
-0.0136905
-0.0141638
-0.0146056
-0.0150615
-0.0155406
-0.0160153
-0.0164487
-0.0167769
-0.0169372
-0.00857793
-0.00877775
-0.00916938
-0.0097396
-0.0104089
-0.0110372
-0.0115596
-0.0119678
-0.012361
-0.0127777
-0.0132188
-0.0136698
-0.0141099
-0.0145219
-0.0149374
-0.0153836
-0.0158359
-0.0162592
-0.0165928
-0.0167655
-0.00880156
-0.00899796
-0.00937821
-0.0099377
-0.0105924
-0.0112022
-0.0117166
-0.0121208
-0.0124961
-0.0128652
-0.0132443
-0.0136327
-0.0140119
-0.0143725
-0.0147427
-0.0151575
-0.0155976
-0.0160187
-0.0163648
-0.0165572
-0.00902329
-0.00921441
-0.00958816
-0.0101347
-0.0107757
-0.0113673
-0.0118717
-0.0122771
-0.0126476
-0.0129922
-0.0133138
-0.0136027
-0.0138625
-0.0141079
-0.0143737
-0.014707
-0.0151086
-0.0155447
-0.0159796
-0.0163271
-0.00924297
-0.00943208
-0.0097998
-0.0103284
-0.0109486
-0.0115274
-0.0120241
-0.012431
-0.0128124
-0.0131848
-0.0135448
-0.0138
-0.0139103
-0.0139851
-0.0140907
-0.0142288
-0.01435
-0.0143983
-0.0143801
-0.014377
-0.00946781
-0.00965361
-0.0100119
-0.0105178
-0.0111026
-0.0116572
-0.0121627
-0.0125823
-0.0128922
-0.0130889
-0.0132656
-0.0134511
-0.0136309
-0.0137909
-0.0139181
-0.0140219
-0.0141113
-0.0142039
-0.0143198
-0.014512
-0.00969705
-0.00988744
-0.0102376
-0.0107229
-0.0112708
-0.0117411
-0.0121201
-0.0124308
-0.0127078
-0.0129725
-0.0132556
-0.0135225
-0.0137605
-0.0139602
-0.0140883
-0.0141512
-0.0141513
-0.0140941
-0.0140236
-0.0140172
-0.00991757
-0.0100558
-0.0103379
-0.0107514
-0.011244
-0.011699
-0.0120913
-0.0124233
-0.0127305
-0.013005
-0.0132758
-0.0135114
-0.0136829
-0.0138333
-0.0140031
-0.0142392
-0.0145912
-0.0150484
-0.0155635
-0.0160456
-0.0101657
-0.0103206
-0.0105055
-0.0108121
-0.0112444
-0.0116847
-0.0121024
-0.0124642
-0.0127866
-0.0130751
-0.0133405
-0.0135749
-0.0137483
-0.013857
-0.0139286
-0.0139436
-0.0139037
-0.0138359
-0.0137954
-0.0138653
-0.0103298
-0.010464
-0.0106201
-0.0108828
-0.0112756
-0.0116966
-0.0121142
-0.0124886
-0.0128156
-0.0131077
-0.0133722
-0.0135851
-0.0137418
-0.0138266
-0.013877
-0.0139112
-0.0139524
-0.0140342
-0.0141832
-0.0144519
-0.0113397
-0.0154555
-0.0216578
-0.0263402
-0.0271509
-0.0261117
-0.0252592
-0.0246575
-0.0239433
-0.0230315
-0.0220886
-0.0213971
-0.0210573
-0.0209371
-0.0208981
-0.0207926
-0.020519
-0.0202348
-0.0200971
-0.020016
-0.0199142
-0.019844
-0.0198091
-0.0197902
-0.0197874
-0.0197701
-0.019714
-0.0196305
-0.0195725
-0.0195806
-0.0195903
-0.0195486
-0.019518
-0.0195487
-0.0195858
-0.0195687
-0.0195235
-0.0195026
-0.0195119
-0.0195266
-0.0195896
-0.0197589
-0.0200056
-0.0202055
-0.0202278
-0.0200984
-0.0199916
-0.0199518
-0.0199308
-0.019907
-0.0199206
-0.0199885
-0.0201
-0.020213
-0.0202767
-0.0202807
-0.0202691
-0.0202897
-0.0203344
-0.0203872
-0.0204139
-0.0204195
-0.0204486
-0.0204843
-0.0205049
-0.0205416
-0.0205971
-0.0206082
-0.0206131
-0.0206201
-0.0206191
-0.0206125
-0.0206284
-0.0206381
-0.020636
-0.0206484
-0.0206582
-0.0206854
-0.0206681
-0.0206483
-0.0206478
-0.0207023
-0.0207328
-0.0207649
-0.0207659
-0.0207676
-0.0207662
-0.0207783
-0.0208182
-0.0208041
-0.0208453
-0.0208461
-0.020861
-0.0208671
-0.0208513
-0.0208689
-0.0208762
-0.0208129
-0.0208318
-0.0208587
-0.0117143
-0.0155503
-0.0215529
-0.0261832
-0.0270623
-0.0260718
-0.0252379
-0.0246452
-0.0239353
-0.0230254
-0.0220825
-0.0213906
-0.0210507
-0.0209312
-0.0208933
-0.0207889
-0.0205158
-0.0202316
-0.0200942
-0.0200136
-0.019912
-0.0198419
-0.0198072
-0.0197885
-0.0197857
-0.0197686
-0.0197125
-0.019629
-0.019571
-0.0195792
-0.019589
-0.0195473
-0.0195167
-0.0195474
-0.0195847
-0.0195677
-0.0195225
-0.0195016
-0.0195109
-0.0195257
-0.0195887
-0.019758
-0.0200048
-0.0202049
-0.0202273
-0.0200979
-0.019991
-0.0199512
-0.0199304
-0.0199065
-0.0199202
-0.019988
-0.0200996
-0.0202126
-0.0202764
-0.0202804
-0.0202688
-0.0202894
-0.0203341
-0.0203869
-0.0204137
-0.0204192
-0.0204483
-0.0204841
-0.0205047
-0.0205413
-0.0205969
-0.020608
-0.0206129
-0.0206199
-0.0206189
-0.0206124
-0.0206282
-0.0206379
-0.0206359
-0.0206482
-0.020658
-0.0206852
-0.0206679
-0.0206481
-0.0206476
-0.0207021
-0.0207326
-0.0207647
-0.0207657
-0.0207674
-0.0207661
-0.0207782
-0.0208181
-0.020804
-0.0208452
-0.020846
-0.0208609
-0.0208671
-0.0208512
-0.0208688
-0.0208761
-0.0208129
-0.0208316
-0.0208586
-0.0121512
-0.0156982
-0.0213993
-0.0259187
-0.0269181
-0.026017
-0.0252063
-0.0246225
-0.0239199
-0.0230154
-0.022076
-0.0213857
-0.021046
-0.0209258
-0.0208879
-0.0207843
-0.020512
-0.0202283
-0.0200913
-0.020011
-0.0199096
-0.0198399
-0.0198055
-0.0197869
-0.0197843
-0.0197673
-0.0197113
-0.0196278
-0.0195697
-0.0195779
-0.0195879
-0.0195462
-0.0195155
-0.0195463
-0.0195837
-0.0195667
-0.0195215
-0.0195007
-0.0195101
-0.0195248
-0.0195878
-0.0197572
-0.0200042
-0.0202045
-0.020227
-0.0200974
-0.0199904
-0.0199507
-0.0199299
-0.0199061
-0.0199197
-0.0199876
-0.0200992
-0.0202123
-0.0202761
-0.0202801
-0.0202685
-0.0202891
-0.0203338
-0.0203866
-0.0204134
-0.020419
-0.0204481
-0.0204839
-0.0205045
-0.0205411
-0.0205967
-0.0206078
-0.0206127
-0.0206197
-0.0206188
-0.0206122
-0.0206281
-0.0206377
-0.0206357
-0.0206481
-0.0206579
-0.0206851
-0.0206678
-0.020648
-0.0206475
-0.020702
-0.0207325
-0.0207646
-0.0207656
-0.0207673
-0.020766
-0.0207781
-0.020818
-0.0208039
-0.0208451
-0.0208459
-0.0208608
-0.020867
-0.0208511
-0.0208687
-0.020876
-0.0208128
-0.0208315
-0.0208586
-0.0125642
-0.0158473
-0.0212136
-0.0255851
-0.0267161
-0.0259322
-0.0251515
-0.0245797
-0.0238894
-0.0229964
-0.0220664
-0.0213816
-0.0210429
-0.0209207
-0.0208806
-0.0207771
-0.0205065
-0.0202242
-0.0200877
-0.0200073
-0.0199061
-0.019837
-0.0198033
-0.019785
-0.0197826
-0.0197659
-0.0197101
-0.0196267
-0.0195684
-0.0195767
-0.0195867
-0.0195452
-0.0195145
-0.0195452
-0.0195826
-0.0195657
-0.0195206
-0.0194997
-0.0195091
-0.0195238
-0.0195867
-0.0197563
-0.0200036
-0.0202041
-0.0202266
-0.0200969
-0.0199898
-0.0199502
-0.0199294
-0.0199057
-0.0199193
-0.0199871
-0.0200988
-0.020212
-0.0202759
-0.0202798
-0.0202682
-0.0202888
-0.0203335
-0.0203864
-0.0204132
-0.0204188
-0.0204479
-0.0204837
-0.0205043
-0.0205409
-0.0205965
-0.0206076
-0.0206125
-0.0206196
-0.0206186
-0.020612
-0.0206279
-0.0206376
-0.0206355
-0.0206479
-0.0206577
-0.020685
-0.0206677
-0.0206479
-0.0206473
-0.0207019
-0.0207324
-0.0207645
-0.0207655
-0.0207672
-0.0207659
-0.020778
-0.020818
-0.0208038
-0.020845
-0.0208458
-0.0208607
-0.0208669
-0.0208511
-0.0208686
-0.0208759
-0.0208127
-0.0208313
-0.0208585
-0.0129594
-0.0159945
-0.0210132
-0.0252251
-0.0264852
-0.0258295
-0.0250812
-0.0245197
-0.0238438
-0.0229669
-0.0220516
-0.0213768
-0.0210409
-0.0209155
-0.0208709
-0.0207663
-0.0204985
-0.0202195
-0.0200836
-0.0200024
-0.0199009
-0.0198328
-0.0198001
-0.0197823
-0.0197802
-0.0197639
-0.0197088
-0.0196257
-0.0195673
-0.0195752
-0.0195855
-0.0195443
-0.0195137
-0.0195442
-0.0195813
-0.0195645
-0.0195196
-0.0194987
-0.0195079
-0.0195225
-0.0195854
-0.0197552
-0.0200028
-0.0202036
-0.0202262
-0.0200962
-0.019989
-0.0199495
-0.0199289
-0.0199051
-0.0199187
-0.0199866
-0.0200983
-0.0202117
-0.0202756
-0.0202795
-0.0202678
-0.0202885
-0.0203332
-0.0203861
-0.020413
-0.0204185
-0.0204476
-0.0204835
-0.0205041
-0.0205407
-0.0205963
-0.0206074
-0.0206123
-0.0206194
-0.0206184
-0.0206118
-0.0206277
-0.0206374
-0.0206354
-0.0206478
-0.0206576
-0.0206848
-0.0206675
-0.0206477
-0.0206472
-0.0207017
-0.0207323
-0.0207644
-0.0207654
-0.0207671
-0.0207658
-0.0207779
-0.0208179
-0.0208038
-0.0208449
-0.0208458
-0.0208606
-0.0208668
-0.020851
-0.0208685
-0.0208759
-0.0208126
-0.0208312
-0.0208585
-0.0133398
-0.016139
-0.0208147
-0.0248598
-0.0262396
-0.0257191
-0.0250061
-0.0244519
-0.023789
-0.0229298
-0.0220324
-0.0213704
-0.0210388
-0.0209098
-0.0208588
-0.0207521
-0.0204883
-0.0202142
-0.0200793
-0.0199966
-0.0198946
-0.0198273
-0.0197958
-0.0197787
-0.0197768
-0.019761
-0.0197071
-0.0196248
-0.0195661
-0.0195734
-0.0195838
-0.0195435
-0.0195133
-0.0195433
-0.0195799
-0.0195632
-0.0195187
-0.0194978
-0.0195065
-0.0195207
-0.0195838
-0.0197539
-0.0200019
-0.0202029
-0.0202256
-0.0200954
-0.0199881
-0.0199486
-0.0199281
-0.0199044
-0.019918
-0.0199859
-0.0200978
-0.0202114
-0.0202753
-0.0202791
-0.0202673
-0.020288
-0.0203329
-0.0203858
-0.0204127
-0.0204182
-0.0204473
-0.0204832
-0.0205038
-0.0205405
-0.0205961
-0.0206073
-0.0206121
-0.0206192
-0.0206182
-0.0206116
-0.0206275
-0.0206373
-0.0206352
-0.0206476
-0.0206574
-0.0206847
-0.0206674
-0.0206475
-0.020647
-0.0207016
-0.0207322
-0.0207643
-0.0207653
-0.020767
-0.0207656
-0.0207777
-0.0208178
-0.0208036
-0.0208448
-0.0208457
-0.0208605
-0.0208668
-0.0208509
-0.0208685
-0.0208758
-0.0208125
-0.020831
-0.0208585
-0.0137007
-0.0162814
-0.0206299
-0.0244978
-0.0259816
-0.0256017
-0.0249294
-0.0243808
-0.0237289
-0.0228877
-0.0220097
-0.0213622
-0.0210357
-0.0209031
-0.0208451
-0.0207358
-0.0204767
-0.0202084
-0.0200749
-0.0199906
-0.0198879
-0.0198214
-0.0197909
-0.0197741
-0.019772
-0.019757
-0.0197047
-0.0196238
-0.0195649
-0.0195711
-0.0195815
-0.0195425
-0.0195131
-0.0195424
-0.0195782
-0.0195618
-0.0195181
-0.0194972
-0.0195051
-0.0195186
-0.0195818
-0.0197523
-0.0200005
-0.0202017
-0.0202246
-0.0200945
-0.019987
-0.0199476
-0.0199272
-0.0199036
-0.0199171
-0.019985
-0.0200971
-0.0202109
-0.0202748
-0.0202786
-0.0202668
-0.0202875
-0.0203324
-0.0203854
-0.0204123
-0.0204178
-0.0204469
-0.0204829
-0.0205035
-0.0205402
-0.0205959
-0.020607
-0.0206119
-0.020619
-0.020618
-0.0206114
-0.0206273
-0.0206371
-0.020635
-0.0206474
-0.0206572
-0.0206845
-0.0206673
-0.0206473
-0.0206468
-0.0207014
-0.020732
-0.0207641
-0.0207652
-0.0207668
-0.0207655
-0.0207776
-0.0208177
-0.0208035
-0.0208447
-0.0208456
-0.0208604
-0.0208667
-0.0208508
-0.0208684
-0.0208757
-0.0208125
-0.0208309
-0.0208585
-0.0140376
-0.0164252
-0.0204673
-0.0241427
-0.0257087
-0.0254739
-0.0248503
-0.0243077
-0.0236655
-0.0228418
-0.0219839
-0.0213519
-0.0210313
-0.0208954
-0.0208301
-0.0207182
-0.0204643
-0.0202023
-0.0200703
-0.0199846
-0.0198814
-0.0198158
-0.0197863
-0.0197692
-0.0197664
-0.0197517
-0.0197015
-0.0196227
-0.0195636
-0.0195681
-0.0195783
-0.0195412
-0.019513
-0.0195414
-0.0195761
-0.0195602
-0.0195178
-0.019497
-0.0195039
-0.0195166
-0.0195797
-0.0197506
-0.0199986
-0.0201997
-0.020223
-0.0200932
-0.0199858
-0.0199464
-0.0199262
-0.0199028
-0.0199162
-0.019984
-0.0200962
-0.0202102
-0.0202742
-0.0202779
-0.0202661
-0.0202869
-0.0203318
-0.0203849
-0.0204118
-0.0204173
-0.0204465
-0.0204825
-0.0205032
-0.0205398
-0.0205956
-0.0206068
-0.0206116
-0.0206188
-0.0206178
-0.0206112
-0.0206271
-0.0206369
-0.0206348
-0.0206472
-0.020657
-0.0206844
-0.0206671
-0.0206471
-0.0206465
-0.0207012
-0.0207319
-0.020764
-0.020765
-0.0207667
-0.0207653
-0.0207774
-0.0208175
-0.0208034
-0.0208446
-0.0208455
-0.0208603
-0.0208666
-0.0208507
-0.0208683
-0.0208757
-0.0208126
-0.0208308
-0.0208585
-0.0143514
-0.0165743
-0.0203291
-0.0237934
-0.0254173
-0.0253325
-0.0247691
-0.0242346
-0.0235999
-0.0227925
-0.0219549
-0.0213394
-0.0210257
-0.0208868
-0.0208143
-0.0206998
-0.0204511
-0.0201958
-0.0200655
-0.0199785
-0.0198751
-0.0198107
-0.019782
-0.0197643
-0.0197602
-0.0197457
-0.0196978
-0.0196214
-0.0195622
-0.0195647
-0.0195745
-0.0195393
-0.0195126
-0.0195401
-0.0195734
-0.0195582
-0.0195175
-0.0194972
-0.019503
-0.0195149
-0.0195781
-0.0197491
-0.0199965
-0.0201969
-0.0202205
-0.0200914
-0.0199842
-0.0199449
-0.0199251
-0.019902
-0.0199153
-0.0199829
-0.0200951
-0.0202093
-0.0202734
-0.0202771
-0.0202652
-0.0202861
-0.020331
-0.0203842
-0.0204112
-0.0204167
-0.0204458
-0.0204819
-0.0205027
-0.0205394
-0.0205953
-0.0206065
-0.0206114
-0.0206185
-0.0206175
-0.0206109
-0.0206269
-0.0206367
-0.0206346
-0.020647
-0.0206568
-0.0206842
-0.0206669
-0.0206469
-0.0206463
-0.0207011
-0.0207317
-0.0207638
-0.0207648
-0.0207665
-0.0207651
-0.0207772
-0.0208174
-0.0208032
-0.0208444
-0.0208453
-0.0208602
-0.0208665
-0.0208507
-0.0208683
-0.0208756
-0.0208127
-0.0208308
-0.0208584
-0.0146484
-0.0167265
-0.0202097
-0.0234482
-0.0251079
-0.0251775
-0.0246871
-0.024163
-0.0235328
-0.0227395
-0.0219221
-0.0213245
-0.0210189
-0.0208775
-0.0207977
-0.0206804
-0.0204371
-0.0201888
-0.0200604
-0.0199723
-0.019869
-0.019806
-0.0197782
-0.0197596
-0.0197538
-0.0197391
-0.0196936
-0.0196198
-0.0195607
-0.019561
-0.0195701
-0.019537
-0.0195118
-0.0195383
-0.0195703
-0.0195558
-0.0195171
-0.0194976
-0.0195025
-0.0195137
-0.0195772
-0.0197483
-0.0199947
-0.0201937
-0.0202172
-0.0200887
-0.0199819
-0.019943
-0.019924
-0.0199014
-0.0199146
-0.0199818
-0.020094
-0.0202083
-0.0202724
-0.020276
-0.0202642
-0.0202852
-0.0203301
-0.0203833
-0.0204104
-0.0204159
-0.020445
-0.0204811
-0.0205021
-0.0205389
-0.0205947
-0.0206061
-0.0206111
-0.0206182
-0.0206172
-0.0206106
-0.0206267
-0.0206364
-0.0206343
-0.0206468
-0.0206566
-0.020684
-0.0206667
-0.0206467
-0.020646
-0.0207008
-0.0207316
-0.0207636
-0.0207647
-0.0207663
-0.0207649
-0.020777
-0.0208172
-0.0208031
-0.0208442
-0.0208452
-0.0208601
-0.0208664
-0.0208506
-0.0208683
-0.0208755
-0.0208129
-0.0208309
-0.0208584
-0.0149324
-0.0168727
-0.0201031
-0.0231123
-0.0247855
-0.0250087