/*--------------------------------*- C++ -*----------------------------------*\
| =========                 |                                                 |
| \\      /  F ield         | OpenFOAM: The Open Source CFD Toolbox           |
|  \\    /   O peration     | Version:  2506                                  |
|   \\  /    A nd           | Website:  www.openfoam.com                      |
|    \\/     M anipulation  |                                                 |
\*---------------------------------------------------------------------------*/
FoamFile
{
    version     2.0;
    format      ascii;
    arch        "LSB;label=32;scalar=64";
    class       surfaceScalarField;
    location    "8.55";
    object      phi;
}
// * * * * * * * * * * * * * * * * * * * * * * * * * * * * * * * * * * * * * //

dimensions      [0 3 -1 0 0 0 0];

oriented        oriented;

internalField   nonuniform List<scalar> 
19000
(
1.18477e-06
1.13898e-06
1.14136e-06
-3.13903e-07
1.23019e-06
1.52863e-06
1.07419e-06
-1.5907e-06
1.10589e-06
-3.56334e-07
1.21008e-06
1.64438e-06
1.1233e-06
4.09343e-07
1.12464e-06
1.80757e-07
1.16655e-06
9.66451e-07
1.10091e-06
-7.16208e-08
1.14957e-06
9.04033e-07
1.09341e-06
-3.23734e-07
1.14278e-06
-2.26805e-07
1.12702e-06
-2.7487e-08
1.13386e-06
-1.01885e-07
1.13886e-06
3.56888e-07
1.14073e-06
1.63784e-07
1.14268e-06
3.98665e-07
1.14632e-06
2.73393e-07
4.0834e-07
1.14722e-06
1.23726e-06
1.12598e-06
1.19587e-06
-2.72509e-07
1.28341e-06
1.44108e-06
1.11995e-06
-1.42724e-06
1.15756e-06
-3.93944e-07
1.27719e-06
1.52475e-06
1.18297e-06
5.03556e-07
1.1819e-06
1.81833e-07
1.22062e-06
9.27725e-07
1.15839e-06
-9.38756e-09
1.1975e-06
8.64923e-07
1.14682e-06
-2.73056e-07
1.19338e-06
-2.7336e-07
1.18985e-06
-2.39615e-08
1.18258e-06
-9.4609e-08
1.21849e-06
3.20978e-07
1.18867e-06
1.93599e-07
1.22446e-06
3.62879e-07
1.18969e-06
3.08158e-07
3.64927e-07
1.2331e-06
1.29378e-06
1.11498e-06
1.25167e-06
-2.30392e-07
1.33809e-06
1.35466e-06
1.17619e-06
-1.26534e-06
1.21039e-06
-4.28144e-07
1.34519e-06
1.38996e-06
1.25058e-06
5.98159e-07
1.24444e-06
1.87973e-07
1.27704e-06
8.95124e-07
1.22316e-06
4.44928e-08
1.25176e-06
8.36324e-07
1.21555e-06
-2.36847e-07
1.24584e-06
-3.03651e-07
1.26204e-06
-4.01543e-08
1.23699e-06
-6.95604e-08
1.28352e-06
2.74441e-07
1.24797e-06
2.29156e-07
1.27389e-06
3.36961e-07
1.25818e-06
3.23869e-07
3.58519e-07
1.26458e-06
1.3532e-06
1.10589e-06
1.31182e-06
-1.89012e-07
1.39359e-06
1.27289e-06
1.24522e-06
-1.11697e-06
1.26547e-06
-4.48388e-07
1.40981e-06
1.24562e-06
1.32171e-06
6.86257e-07
1.30851e-06
2.01174e-07
1.33369e-06
8.69949e-07
1.29364e-06
8.45375e-08
1.31288e-06
8.17089e-07
1.29323e-06
-2.172e-07
1.30278e-06
-3.13201e-07
1.33209e-06
-6.94694e-08
1.30136e-06
-3.88303e-08
1.33496e-06
2.40848e-07
1.3153e-06
2.48813e-07
1.32149e-06
3.3077e-07
1.3213e-06
3.24064e-07
3.59989e-07
1.31983e-06
1.41599e-06
1.09825e-06
1.37765e-06
-1.50666e-07
1.45068e-06
1.19985e-06
1.32728e-06
-9.9357e-07
1.32336e-06
-4.44474e-07
1.4651e-06
1.10388e-06
1.39463e-06
7.56727e-07
1.37206e-06
2.2374e-07
1.38928e-06
8.52736e-07
1.3652e-06
1.08611e-07
1.38029e-06
8.02003e-07
1.37225e-06
-2.09164e-07
1.36658e-06
-3.07525e-07
1.39675e-06
-9.96384e-08
1.37504e-06
-1.71265e-08
1.39167e-06
2.24223e-07
1.38692e-06
2.53559e-07
1.38567e-06
3.32024e-07
1.38639e-06
3.23345e-07
3.60154e-07
1.38622e-06
1.48253e-06
1.0914e-06
1.44954e-06
-1.17679e-07
1.51026e-06
1.13913e-06
1.41767e-06
-9.00983e-07
1.38561e-06
-4.12414e-07
1.51116e-06
9.78326e-07
1.46832e-06
7.99572e-07
1.43642e-06
2.55639e-07
1.44606e-06
8.43093e-07
1.43597e-06
1.18696e-07
1.45211e-06
7.85871e-07
1.45068e-06
-2.07739e-07
1.43772e-06
-2.94559e-07
1.461e-06
-1.22925e-07
1.45177e-06
-7.89101e-09
1.45946e-06
2.16534e-07
1.46091e-06
2.52109e-07
1.46012e-06
3.32809e-07
1.45966e-06
3.23804e-07
3.61054e-07
1.45876e-06
1.55303e-06
1.08459e-06
1.52695e-06
-9.15991e-08
1.57356e-06
1.09253e-06
1.51023e-06
-8.37658e-07
1.45478e-06
-3.56957e-07
1.55508e-06
8.78025e-07
1.54243e-06
8.12215e-07
1.50488e-06
2.93196e-07
1.50879e-06
8.39184e-07
1.5078e-06
1.19679e-07
1.52706e-06
7.66618e-07
1.53006e-06
-2.1074e-07
1.51462e-06
-2.79119e-07
1.52899e-06
-1.37294e-07
1.52764e-06
-6.54227e-09
1.53302e-06
2.11148e-07
1.5364e-06
2.48736e-07
1.53664e-06
3.32563e-07
1.53652e-06
3.23927e-07
3.62985e-07
1.53459e-06
1.62756e-06
1.07715e-06
1.60884e-06
-7.28797e-08
1.64174e-06
1.05963e-06
1.60085e-06
-7.96765e-07
1.53282e-06
-2.88932e-07
1.60598e-06
8.04869e-07
1.61749e-06
8.00703e-07
1.58003e-06
3.30652e-07
1.58125e-06
8.37965e-07
1.58403e-06
1.169e-07
1.60555e-06
7.45104e-07
1.6117e-06
-2.16894e-07
1.5956e-06
-2.63023e-07
1.6021e-06
-1.43791e-07
1.60333e-06
-7.77584e-09
1.60802e-06
2.0646e-07
1.61257e-06
2.44191e-07
1.61265e-06
3.3248e-07
1.61286e-06
3.23718e-07
3.65167e-07
1.61068e-06
1.70606e-06
1.06867e-06
1.69423e-06
-6.10514e-08
1.71546e-06
1.0384e-06
1.68856e-06
-7.69869e-07
1.61949e-06
-2.19858e-07
1.66956e-06
7.54791e-07
1.69486e-06
7.75402e-07
1.66239e-06
3.63127e-07
1.66394e-06
8.36412e-07
1.66689e-06
1.13954e-07
1.68882e-06
7.23171e-07
1.69601e-06
-2.24086e-07
1.67992e-06
-2.46928e-07
1.68036e-06
-1.44236e-07
1.68121e-06
-8.62111e-09
1.68431e-06
2.03358e-07
1.68981e-06
2.38693e-07
1.68922e-06
3.33065e-07
1.68912e-06
3.23822e-07
3.67173e-07
1.68711e-06
1.78842e-06
1.05897e-06
1.78246e-06
-5.50912e-08
1.79475e-06
1.02612e-06
1.77464e-06
-7.49766e-07
1.71274e-06
-1.5795e-07
1.7466e-06
7.20932e-07
1.77628e-06
7.45714e-07
1.75095e-06
3.88462e-07
1.75468e-06
8.32679e-07
1.75648e-06
1.12155e-07
1.77754e-06
7.02107e-07
1.78314e-06
-2.29684e-07
1.76748e-06
-2.3127e-07
1.76334e-06
-1.40094e-07
1.76302e-06
-8.29913e-09
1.76361e-06
2.02771e-07
1.76959e-06
2.32712e-07
1.7685e-06
3.34155e-07
1.76778e-06
3.24538e-07
3.68566e-07
1.76639e-06
1.87463e-06
1.04808e-06
1.87327e-06
-5.37299e-08
1.87928e-06
1.0201e-06
1.86122e-06
-7.31704e-07
1.81046e-06
-1.07188e-07
1.83473e-06
6.96658e-07
1.863e-06
7.17451e-07
1.84445e-06
4.07008e-07
1.85082e-06
8.26307e-07
1.85146e-06
1.11515e-07
1.87124e-06
6.82328e-07
1.8732e-06
-2.31641e-07
1.85838e-06
-2.16448e-07
1.85054e-06
-1.3226e-07
1.84943e-06
-7.18576e-09
1.8473e-06
2.049e-07
1.85325e-06
2.26765e-07
1.85214e-06
3.35263e-07
1.85081e-06
3.25866e-07
3.68648e-07
1.85073e-06
1.96473e-06
1.03619e-06
1.96663e-06
-5.5627e-08
1.96871e-06
1.01802e-06
1.9503e-06
-7.13294e-07
1.91142e-06
-6.83096e-08
1.93088e-06
6.772e-07
1.95537e-06
6.92959e-07
1.94201e-06
4.20369e-07
1.95064e-06
8.17673e-07
1.95028e-06
1.1188e-07
1.96883e-06
6.63773e-07
1.96619e-06
-2.28998e-07
1.95255e-06
-2.0281e-07
1.94159e-06
-1.21296e-07
1.94036e-06
-5.96059e-09
1.93592e-06
2.09342e-07
1.94139e-06
2.21295e-07
1.94087e-06
3.35781e-07
1.93893e-06
3.27814e-07
3.66746e-07
1.94083e-06
2.05884e-06
1.02354e-06
2.06269e-06
-5.9477e-08
2.06285e-06
1.01786e-06
2.04332e-06
-6.93762e-07
2.01514e-06
-4.01331e-08
2.03243e-06
6.59913e-07
2.05302e-06
6.72365e-07
2.04308e-06
4.30309e-07
2.05338e-06
8.07375e-07
2.05191e-06
1.13358e-07
2.06943e-06
6.46251e-07
2.06211e-06
-2.21677e-07
2.0499e-06
-1.90601e-07
2.0363e-06
-1.07699e-07
2.03553e-06
-5.19546e-09
2.02952e-06
2.15358e-07
2.03414e-06
2.16677e-07
2.03483e-06
3.3509e-07
2.03217e-06
3.30473e-07
3.62562e-07
2.03635e-06
2.15714e-06
1.01041e-06
2.16177e-06
-6.41059e-08
2.16174e-06
1.01788e-06
2.14113e-06
-6.73149e-07
2.12152e-06
-2.05253e-08
2.13763e-06
6.4381e-07
2.15522e-06
6.54769e-07
2.14733e-06
4.382e-07
2.1588e-06
7.95901e-07
2.15604e-06
1.16121e-07
2.17281e-06
6.29482e-07
2.16116e-06
-2.10022e-07
2.15046e-06
-1.79901e-07
2.13473e-06
-9.19783e-08
2.13479e-06
-5.24869e-09
2.12814e-06
2.22001e-07
2.1316e-06
2.13217e-07
2.13411e-06
3.32579e-07
2.13072e-06
3.33866e-07
3.56278e-07
2.13701e-06
2.25988e-06
9.9702e-07
2.26432e-06
-6.85548e-08
2.26556e-06
1.01665e-06
2.24413e-06
-6.51723e-07
2.23066e-06
-7.05709e-09
2.24554e-06
6.28932e-07
2.26129e-06
6.39016e-07
2.2546e-06
4.44895e-07
2.26695e-06
7.83547e-07
2.26294e-06
1.20131e-07
2.27939e-06
6.13032e-07
2.26388e-06
-1.9451e-07
2.25461e-06
-1.70628e-07
2.23721e-06
-7.45834e-08
2.2382e-06
-6.23626e-09
2.232e-06
2.28207e-07
2.23409e-06
2.1112e-07
2.23898e-06
3.27689e-07
2.23513e-06
3.37723e-07
3.48515e-07
2.24289e-06
2.36737e-06
9.83521e-07
2.37093e-06
-7.21137e-08
2.37448e-06
1.0131e-06
2.35245e-06
-6.2969e-07
2.34289e-06
2.50824e-09
2.35604e-06
6.15782e-07
2.37096e-06
6.24096e-07
2.36503e-06
4.50825e-07
2.37817e-06
7.70405e-07
2.37319e-06
1.2511e-07
2.38985e-06
5.9637e-07
2.37101e-06
-1.75669e-07
2.36299e-06
-1.62611e-07
2.34428e-06
-5.58701e-08
2.34603e-06
-7.98393e-09
2.34131e-06
2.32926e-07
2.34191e-06
2.10517e-07
2.34956e-06
3.20044e-07
2.34581e-06
3.41466e-07
3.40156e-07
2.35417e-06
2.48e-06
9.69914e-07
2.48218e-06
-7.42954e-08
2.4887e-06
1.00658e-06
2.46612e-06
-6.07103e-07
2.45873e-06
9.89224e-09
2.46961e-06
6.04901e-07
2.48444e-06
6.09271e-07
2.47907e-06
4.56192e-07
2.49306e-06
7.5642e-07
2.48746e-06
1.30705e-07
2.5048e-06
5.79033e-07
2.48323e-06
-1.54098e-07
2.47628e-06
-1.5566e-07
2.45658e-06
-3.6168e-08
2.45859e-06
-1.00026e-08
2.4562e-06
2.35321e-07
2.45519e-06
2.11527e-07
2.46555e-06
3.09688e-07
2.46265e-06
3.44364e-07
3.3218e-07
2.47062e-06
2.59813e-06
9.56077e-07
2.59861e-06
-7.47737e-08
2.60838e-06
9.96805e-07
2.58516e-06
-5.83877e-07
2.57884e-06
1.6206e-08
2.58712e-06
5.96622e-07
2.60237e-06
5.94018e-07
2.59743e-06
4.61131e-07
2.61234e-06
7.41517e-07
2.60639e-06
1.36647e-07
2.62465e-06
5.60781e-07
2.60102e-06
-1.30475e-07
2.59496e-06
-1.49599e-07
2.57466e-06
-1.58674e-08
2.57623e-06
-1.15699e-08
2.57662e-06
2.34924e-07
2.57392e-06
2.14235e-07
2.58639e-06
2.97211e-07
2.58504e-06
3.45718e-07
3.25458e-07
2.59176e-06
2.7221e-06
9.41806e-07
2.72065e-06
-7.33279e-08
2.73371e-06
9.83745e-07
2.70967e-06
-5.59834e-07
2.70384e-06
2.20428e-08
2.70945e-06
5.91012e-07
2.72553e-06
5.7793e-07
2.72088e-06
4.65783e-07
2.73666e-06
7.2574e-07
2.7305e-06
1.42803e-07
2.74966e-06
5.4162e-07
2.7247e-06
-1.05509e-07
2.71934e-06
-1.44241e-07
2.69891e-06
4.55977e-09
2.69923e-06
-1.18867e-08
2.70249e-06
2.31666e-07
2.69811e-06
2.18609e-07
2.71165e-06
2.83681e-07
2.71243e-06
3.44935e-07
3.20582e-07
2.7173e-06
2.8522e-06
9.2687e-07
2.84869e-06
-6.9814e-08
2.86494e-06
9.67493e-07
2.83984e-06
-5.34734e-07
2.83426e-06
2.76265e-08
2.83733e-06
5.87936e-07
2.85459e-06
5.6068e-07
2.85009e-06
4.70281e-07
2.86654e-06
7.09282e-07
2.86023e-06
1.49122e-07
2.88011e-06
5.21739e-07
2.85447e-06
-7.98726e-08
2.84962e-06
-1.3939e-07
2.82955e-06
2.46293e-08
2.82791e-06
-1.02468e-08
2.83379e-06
2.25786e-07
2.82797e-06
2.2443e-07
2.84131e-06
2.70341e-07
2.84463e-06
3.41609e-07
3.17713e-07
2.8475e-06
2.98872e-06
9.11048e-07
2.98306e-06
-6.41575e-08
3.00236e-06
9.48195e-07
2.97591e-06
-5.08284e-07
2.97061e-06
3.29217e-08
2.9714e-06
5.87151e-07
2.99001e-06
5.42074e-07
2.98558e-06
4.74705e-07
3.00243e-06
6.92432e-07
2.99601e-06
1.55544e-07
3.0163e-06
5.01451e-07
2.99055e-06
-5.41273e-08
2.986e-06
-1.34833e-07
2.96675e-06
4.38799e-08
2.96263e-06
-6.13391e-09
2.9707e-06
2.17723e-07
2.96389e-06
2.31232e-07
2.97584e-06
2.58393e-07
2.98195e-06
3.35497e-07
3.16591e-07
2.98308e-06
3.13191e-06
8.94148e-07
3.12409e-06
-5.63442e-08
3.14628e-06
9.26008e-07
3.11817e-06
-4.80173e-07
3.11338e-06
3.77089e-08
3.11217e-06
5.88364e-07
3.13213e-06
5.2211e-07
3.12779e-06
4.79044e-07
3.14473e-06
6.755e-07
3.13833e-06
1.61942e-07
3.15865e-06
4.81126e-07
3.13318e-06
-2.86597e-08
3.12872e-06
-1.30365e-07
3.1107e-06
6.18963e-08
3.10385e-06
7.11424e-10
3.11355e-06
2.08031e-07
3.10644e-06
2.3834e-07
3.11608e-06
2.48756e-07
3.12494e-06
3.26637e-07
3.1654e-07
3.12499e-06
3.28205e-06
8.76009e-07
3.2721e-06
-4.63961e-08
3.29703e-06
9.01079e-07
3.26697e-06
-4.50115e-07
3.26301e-06
4.16729e-08
3.2601e-06
5.91269e-07
3.28124e-06
5.00973e-07
3.27709e-06
4.83191e-07
3.29379e-06
6.58799e-07
3.28762e-06
1.68109e-07
3.30762e-06
4.61135e-07
3.28263e-06
-3.67736e-09
3.27805e-06
-1.25783e-07
3.26166e-06
7.82899e-08
3.25203e-06
1.03374e-08
3.2628e-06
1.97262e-07
3.25614e-06
2.44998e-07
3.26297e-06
2.41927e-07
3.27417e-06
3.15435e-07
3.16599e-07
3.27412e-06
3.43944e-06
8.56498e-07
3.42739e-06
-3.4343e-08
3.45492e-06
8.73545e-07
3.42271e-06
-4.17899e-07
3.41988e-06
4.45035e-08
3.41559e-06
5.95556e-07
3.43758e-06
4.78982e-07
3.43382e-06
4.86949e-07
3.44998e-06
6.42646e-07
3.44428e-06
1.73802e-07
3.46365e-06
4.41768e-07
3.43921e-06
2.07627e-08
3.43432e-06
-1.20892e-07
3.41989e-06
9.27193e-08
3.4076e-06
2.26231e-08
3.41895e-06
1.85918e-07
3.41344e-06
2.50503e-07
3.41734e-06
2.38025e-07
3.43021e-06
3.0257e-07
3.1573e-07
3.43108e-06
3.6044e-06
8.35513e-07
3.59026e-06
-2.02056e-08
3.62028e-06
8.43526e-07
3.58579e-06
-3.83412e-07
3.58432e-06
4.59743e-08
3.57895e-06
6.00922e-07
3.60141e-06
4.56525e-07
3.59833e-06
4.90029e-07
3.61359e-06
6.27384e-07
3.60863e-06
1.78763e-07
3.62719e-06
4.23208e-07
3.60325e-06
4.4704e-08
3.59788e-06
-1.15519e-07
3.58568e-06
1.0492e-07
3.57098e-06
3.73186e-08
3.58242e-06
1.74476e-07
3.57865e-06
2.54276e-07
3.57979e-06
2.36886e-07
3.59348e-06
2.88882e-07
3.12997e-07
3.59621e-06
3.77724e-06
8.12979e-07
3.76103e-06
-3.99802e-09
3.79342e-06
8.1114e-07
3.75665e-06
-3.46647e-07
3.75664e-06
4.59866e-08
3.7505e-06
6.07066e-07
3.77299e-06
4.34033e-07
3.77095e-06
4.92064e-07
3.78497e-06
6.13368e-07
3.78095e-06
1.8278e-07
3.79867e-06
4.05495e-07
3.77512e-06
6.82497e-08
3.76912e-06
-1.09515e-07
3.75932e-06
1.14716e-07
3.74256e-06
5.4082e-08
3.75361e-06
1.63423e-07
3.752e-06
2.55882e-07
3.7508e-06
2.38091e-07
3.7643e-06
2.75382e-07
3.07701e-07
3.76959e-06
3.95831e-06
7.88859e-07
3.94005e-06
1.42565e-08
3.97469e-06
7.76508e-07
3.93574e-06
-3.07703e-07
3.93715e-06
4.45765e-08
3.93054e-06
6.13681e-07
3.95259e-06
4.11976e-07
3.95204e-06
4.92617e-07
3.96449e-06
6.0092e-07
3.96153e-06
1.85743e-07
3.97848e-06
3.88537e-07
3.95522e-06
9.15101e-08
3.94842e-06
-1.02708e-07
3.94115e-06
1.21983e-07
3.92275e-06
7.2487e-08
3.93283e-06
1.53335e-07
3.93372e-06
2.5499e-07
3.93077e-06
2.41042e-07
3.94303e-06
2.63126e-07
2.99534e-07
3.9512e-06
4.14796e-06
7.63146e-07
4.12771e-06
3.45105e-08
4.16445e-06
7.39771e-07
4.12351e-06
-2.66767e-07
4.12618e-06
4.19054e-08
4.11944e-06
6.20419e-07
4.14055e-06
3.90875e-07
4.14195e-06
4.91211e-07
4.1526e-06
5.90275e-07
4.15064e-06
1.87702e-07
4.16708e-06
3.72092e-07
4.14402e-06
1.14573e-07
4.13615e-06
-9.4839e-08
4.13155e-06
1.26582e-07
4.11193e-06
9.21104e-08
4.12044e-06
1.4482e-07
4.12401e-06
2.51424e-07
4.12008e-06
2.44974e-07
4.13016e-06
2.53048e-07
2.88697e-07
4.14099e-06
4.34658e-06
7.35864e-07
4.32441e-06
5.66831e-08
4.36309e-06
7.01095e-07
4.32043e-06
-2.24114e-07
4.3241e-06
3.82441e-08
4.31764e-06
6.26878e-07
4.33721e-06
3.71302e-07
4.34106e-06
4.87364e-07
4.34978e-06
5.81548e-07
4.3486e-06
1.88883e-07
4.36485e-06
3.5584e-07
4.34199e-06
1.37437e-07
4.3327e-06
-8.55448e-08
4.33087e-06
1.28409e-07
4.31056e-06
1.12424e-07
4.31679e-06
1.38584e-07
4.32304e-06
2.45175e-07
4.31904e-06
2.48972e-07
4.32631e-06
2.45779e-07
2.75979e-07
4.33903e-06
4.55458e-06
7.0706e-07
4.5306e-06
8.06607e-08
4.57101e-06
6.60683e-07
4.527e-06
-1.80104e-07
4.53126e-06
3.39824e-08
4.52558e-06
6.32559e-07
4.54298e-06
3.539e-07
4.54969e-06
4.80663e-07
4.55659e-06
5.74642e-07
4.55576e-06
1.89716e-07
4.5722e-06
3.394e-07
4.54963e-06
1.60001e-07
4.53848e-06
-7.43897e-08
4.53943e-06
1.27453e-07
4.51908e-06
1.32774e-07
4.52227e-06
1.35395e-07
4.53102e-06
2.36427e-07
4.52793e-06
2.52065e-07
4.53227e-06
2.41433e-07
2.62696e-07
4.54556e-06
4.77238e-06
6.76797e-07
4.74674e-06
1.06302e-07
4.78863e-06
6.18785e-07
4.74372e-06
-1.35192e-07
4.74808e-06
2.96272e-08
4.74378e-06
6.36862e-07
4.75831e-06
3.39369e-07
4.76816e-06
4.70808e-07
4.77357e-06
5.69232e-07
4.77251e-06
1.90775e-07
4.78947e-06
3.22437e-07
4.76748e-06
1.81999e-07
4.75399e-06
-6.09022e-08
4.75756e-06
1.23886e-07
4.73797e-06
1.5236e-07
4.73758e-06
1.3579e-07
4.74824e-06
2.25765e-07
4.74695e-06
2.5335e-07
4.74884e-06
2.3955e-07
2.50373e-07
4.76116e-06
5.00045e-06
6.45145e-07
4.97331e-06
1.3344e-07
5.01638e-06
5.7572e-07
4.97113e-06
-8.99486e-08
4.97496e-06
2.5796e-08
4.97271e-06
6.39113e-07
4.98369e-06
3.28389e-07
4.99681e-06
4.5769e-07
5.00125e-06
5.64789e-07
4.99936e-06
1.92667e-07
5.01701e-06
3.0479e-07
4.99606e-06
2.02953e-07
4.97982e-06
-4.46605e-08
4.98558e-06
1.18121e-07
4.9677e-06
1.70243e-07
4.96353e-06
1.39958e-07
4.97518e-06
2.14116e-07
4.9763e-06
2.52225e-07
4.97663e-06
2.39217e-07
2.40213e-07
4.98679e-06
5.23927e-06
6.12189e-07
5.21084e-06
1.61871e-07
5.25467e-06
5.3189e-07
5.20979e-06
-4.50654e-08
5.21236e-06
2.32199e-08
5.21291e-06
6.38563e-07
5.21985e-06
3.21456e-07
5.23597e-06
4.41565e-07
5.24018e-06
5.60584e-07
5.23688e-06
1.95961e-07
5.25518e-06
2.86492e-07
5.23586e-06
2.22274e-07
5.21663e-06
-2.54361e-08
5.22397e-06
1.1078e-07
5.20869e-06
1.85523e-07
5.20097e-06
1.47685e-07
5.21246e-06
2.0262e-07
5.21624e-06
2.48451e-07
5.2161e-06
2.39358e-07
2.32763e-07
5.22355e-06
5.48935e-06
5.78027e-07
5.45987e-06
1.91353e-07
5.50396e-06
4.87797e-07
5.46027e-06
-1.37003e-09
5.46076e-06
2.27301e-08
5.46488e-06
6.34439e-07
5.46758e-06
3.18757e-07
5.48604e-06
4.23105e-07
5.49083e-06
5.55793e-07
5.48571e-06
2.01081e-07
5.50441e-06
2.67797e-07
5.48734e-06
2.39343e-07
5.46521e-06
-3.31007e-09
5.4732e-06
1.02795e-07
5.46142e-06
1.97298e-07
5.45065e-06
1.58453e-07
5.46086e-06
1.92418e-07
5.46711e-06
2.422e-07
5.46742e-06
2.39049e-07
2.27641e-07
5.47254e-06
5.7512e-06
5.42783e-07
5.72097e-06
2.21583e-07
5.76472e-06
4.44044e-07
5.72317e-06
4.01805e-08
5.72066e-06
2.52402e-08
5.72915e-06
6.2595e-07
5.72771e-06
3.20201e-07
5.74754e-06
4.03276e-07
5.75369e-06
5.49645e-07
5.74656e-06
2.0821e-07
5.76517e-06
2.49185e-07
5.75097e-06
2.53542e-07
5.72628e-06
2.13772e-08
5.73381e-06
9.52652e-08
5.72619e-06
2.04926e-07
5.71333e-06
1.71312e-07
5.72112e-06
1.84624e-07
5.72944e-06
2.33878e-07
5.73089e-06
2.37602e-07
2.24147e-07
5.73438e-06
6.02536e-06
5.06617e-07
5.99475e-06
2.52194e-07
6.03744e-06
4.01347e-07
5.99914e-06
7.84897e-08
5.99265e-06
3.17296e-08
6.00609e-06
6.12503e-07
6.00105e-06
3.2524e-07
6.02102e-06
3.83308e-07
6.02921e-06
5.41462e-07
6.02012e-06
2.17296e-07
6.03803e-06
2.31272e-07
6.02717e-06
2.64404e-07
6.00058e-06
4.7966e-08
6.00648e-06
8.93697e-08
6.0033e-06
2.08105e-07
5.98942e-06
1.85186e-07
5.99408e-06
1.79965e-07
6.00395e-06
2.24005e-07
6.00672e-06
2.34841e-07
2.2135e-07
6.00951e-06
6.31238e-06
4.69725e-07
6.28183e-06
2.82747e-07
6.32265e-06
3.6052e-07
6.28881e-06
1.12336e-07
6.27739e-06
4.31486e-08
6.29581e-06
5.94081e-07
6.28831e-06
3.3274e-07
6.3072e-06
3.64422e-07
6.3178e-06
5.30857e-07
6.30712e-06
2.27978e-07
6.32367e-06
2.1472e-07
6.31639e-06
2.7169e-07
6.28868e-06
7.56761e-08
6.29201e-06
8.60374e-08
6.29306e-06
2.07054e-07
6.27943e-06
1.98818e-07
6.28058e-06
1.78811e-07
6.29129e-06
2.13296e-07
6.29551e-06
2.30621e-07
2.1875e-07
6.29811e-06
6.61285e-06
4.32348e-07
6.58286e-06
3.12732e-07
6.62094e-06
3.22442e-07
6.59277e-06
1.40509e-07
6.57592e-06
5.99942e-08
6.5985e-06
5.71501e-07
6.59009e-06
3.41149e-07
6.60681e-06
3.47699e-07
6.61992e-06
5.1775e-07
6.60824e-06
2.39659e-07
6.62279e-06
2.00174e-07
6.6191e-06
2.75374e-07
6.59115e-06
1.03623e-07
6.59128e-06
8.59148e-08
6.59596e-06
2.02376e-07
6.58371e-06
2.11061e-07
6.58154e-06
1.80985e-07
6.59203e-06
2.02804e-07
6.59799e-06
2.24665e-07
2.16113e-07
6.60062e-06
6.92737e-06
3.9477e-07
6.89852e-06
3.41576e-07
6.93296e-06
2.88005e-07
6.91134e-06
1.62133e-07
6.88932e-06
8.20167e-08
6.91463e-06
5.46187e-07
6.9069e-06
3.4888e-07
6.92071e-06
3.33889e-07
6.93607e-06
5.02385e-07
6.9241e-06
2.51631e-07
6.93618e-06
1.881e-07
6.93584e-06
2.75713e-07
6.90857e-06
1.30886e-07
6.90523e-06
8.92577e-08
6.91247e-06
1.95142e-07
6.90273e-06
2.20795e-07
6.89775e-06
1.8597e-07
6.90692e-06
1.93633e-07
6.91475e-06
2.16838e-07
2.13188e-07
6.91767e-06
7.25659e-06
3.57312e-07
7.22951e-06
3.68662e-07
7.25949e-06
2.58027e-07
7.24478e-06
1.76834e-07
7.21854e-06
1.08261e-07
7.2449e-06
5.19823e-07
7.2392e-06
3.54587e-07
7.24978e-06
3.23302e-07
7.26683e-06
4.85339e-07
7.25531e-06
2.63149e-07
7.26465e-06
1.78764e-07
7.26716e-06
2.73198e-07
7.24148e-06
1.56566e-07
7.23469e-06
9.60528e-08
7.24333e-06
1.86493e-07
7.23686e-06
2.27272e-07
7.22995e-06
1.92876e-07
7.23686e-06
1.86725e-07
7.24625e-06
2.07447e-07
2.094e-07
7.25004e-06
7.60121e-06
3.2033e-07
7.57653e-06
3.93344e-07
7.60136e-06
2.33191e-07
7.59347e-06
1.84728e-07
7.56445e-06
1.3728e-07
7.59015e-06
4.94124e-07
7.58753e-06
3.57211e-07
7.59495e-06
3.15876e-07
7.61286e-06
4.67433e-07
7.60243e-06
2.73573e-07
7.60901e-06
1.72184e-07
7.61373e-06
2.68481e-07
7.59037e-06
1.79925e-07
7.58043e-06
1.05997e-07
7.58942e-06
1.77506e-07
7.58651e-06
2.30181e-07
7.57873e-06
2.00654e-07
7.58292e-06
1.82536e-07
7.59306e-06
1.97306e-07
2.04138e-07
7.59832e-06
7.96193e-06
2.84209e-07
7.9403e-06
4.14973e-07
7.95953e-06
2.13966e-07
7.95792e-06
1.86336e-07
7.92785e-06
1.67351e-07
7.95133e-06
4.70646e-07
7.95236e-06
3.56177e-07
7.95713e-06
3.1111e-07
7.97491e-06
4.49653e-07
7.966e-06
2.8248e-07
7.97007e-06
1.68114e-07
7.97629e-06
2.62258e-07
7.95575e-06
2.00471e-07
7.94313e-06
1.18611e-07
7.95157e-06
1.69064e-07
7.95216e-06
2.29596e-07
7.94462e-06
2.08196e-07
7.94613e-06
1.81021e-07
7.95588e-06
1.87552e-07
1.97062e-07
7.96296e-06
8.33953e-06
2.4936e-07
8.32161e-06
4.32896e-07
8.33495e-06
2.00623e-07
8.33882e-06
1.8247e-07
8.30947e-06
1.96701e-07
8.32946e-06
4.50653e-07
8.33415e-06
3.51486e-07
8.33708e-06
3.08184e-07
8.35386e-06
4.32869e-07
8.34654e-06
2.89798e-07
8.34845e-06
1.6621e-07
8.3556e-06
2.55109e-07
8.33803e-06
2.18035e-07
8.32353e-06
1.33111e-07
8.33057e-06
1.62031e-07
8.33443e-06
2.2573e-07
8.32811e-06
2.14524e-07
8.32743e-06
1.81694e-07
8.33577e-06
1.79214e-07
1.88455e-07
8.34438e-06
8.73482e-06
2.16205e-07
8.72122e-06
4.46494e-07
8.72862e-06
1.93218e-07
8.73689e-06
1.742e-07
8.70998e-06
2.23617e-07
8.72546e-06
4.35166e-07
8.73336e-06
3.43591e-07
8.73554e-06
3.05999e-07
8.7506e-06
4.1781e-07
8.7445e-06
2.959e-07
8.74459e-06
1.66121e-07
8.75221e-06
2.47492e-07
8.73788e-06
2.32359e-07
8.72235e-06
1.48644e-07
8.72738e-06
1.57e-07
8.73405e-06
2.19056e-07
8.72974e-06
2.18834e-07
8.72751e-06
1.83923e-07
8.73397e-06
1.72757e-07
1.79231e-07
8.74319e-06
9.14864e-06
1.8518e-07
9.14e-06
4.5514e-07
9.14155e-06
1.91667e-07
9.15309e-06
1.62662e-07
9.12987e-06
2.46832e-07
9.14043e-06
4.24612e-07
9.15051e-06
3.33506e-07
9.15309e-06
3.03419e-07
9.16591e-06
4.04993e-07
9.16037e-06
3.01438e-07
9.1587e-06
1.67789e-07
9.16677e-06
2.39423e-07
9.15611e-06
2.4302e-07
9.14044e-06
1.64318e-07
9.14308e-06
1.54358e-07
9.15189e-06
2.10243e-07
9.15014e-06
2.20588e-07
9.14716e-06
1.86901e-07
9.15167e-06
1.68252e-07
1.70472e-07
9.16043e-06
9.58194e-06
1.567e-07
9.57886e-06
4.58219e-07
9.57482e-06
1.95709e-07
9.58833e-06
1.49146e-07
9.56999e-06
2.65173e-07
9.57548e-06
4.19121e-07
9.58624e-06
3.22749e-07
9.59008e-06
2.9958e-07
9.60085e-06
3.94224e-07
9.59525e-06
3.07037e-07
9.59183e-06
1.71205e-07
9.60052e-06
2.30733e-07
9.59383e-06
2.49714e-07
9.5788e-06
1.79343e-07
9.57896e-06
1.54203e-07
9.58893e-06
2.00273e-07
9.59011e-06
2.19405e-07
9.58706e-06
1.8995e-07
9.5898e-06
1.65514e-07
1.62839e-07
9.59743e-06
1.00357e-05
1.31135e-07
1.00387e-05
4.55221e-07
1.00296e-05
2.0479e-07
1.00435e-05
1.35302e-07
1.00312e-05
2.77433e-07
1.00318e-05
4.18521e-07
1.00411e-05
3.13408e-07
1.00471e-05
2.93623e-07
1.0057e-05
3.84319e-07
1.00511e-05
3.12908e-07
1.00459e-05
1.76409e-07
1.00551e-05
2.21537e-07
1.00523e-05
2.52576e-07
1.00386e-05
1.93038e-07
1.00363e-05
1.56463e-07
1.00463e-05
1.90287e-07
1.00504e-05
2.15253e-07
1.0048e-05
1.92347e-07
1.00493e-05
1.64247e-07
1.56594e-07
1.00556e-05
1.0511e-05
1.08767e-07
1.05204e-05
4.45859e-07
1.05072e-05
2.18009e-07
1.05194e-05
1.23099e-07
1.0514e-05
2.82749e-07
1.05109e-05
4.21647e-07
1.05171e-05
3.07218e-07
1.05251e-05
2.85611e-07
1.05356e-05
3.73867e-07
1.05298e-05
3.18635e-07
1.05226e-05
1.83615e-07
1.05316e-05
2.12594e-07
1.05324e-05
2.51706e-07
1.05207e-05
2.04749e-07
1.05164e-05
1.60844e-07
1.05252e-05
1.81403e-07
1.0532e-05
2.08464e-07
1.05309e-05
1.93462e-07
1.05312e-05
1.63996e-07
1.51749e-07
1.0536e-05
1.1009e-05
8.97601e-08
1.10246e-05
4.30249e-07
1.10086e-05
2.34036e-07
1.10172e-05
1.14553e-07
1.1019e-05
2.80906e-07
1.10145e-05
4.26171e-07
1.10164e-05
3.05263e-07
1.10254e-05
2.76602e-07
1.10374e-05
3.6194e-07
1.10325e-05
3.23539e-07
1.10234e-05
1.92705e-07
1.1031e-05
2.04916e-07
1.10353e-05
2.47483e-07
1.10261e-05
2.13959e-07
1.10202e-05
1.66721e-07
1.10272e-05
1.74391e-07
1.10358e-05
1.99856e-07
1.10365e-05
1.92729e-07
1.10363e-05
1.64237e-07
1.48106e-07
1.10399e-05
1.1531e-05
7.41352e-08
1.15521e-05
4.09114e-07
1.15351e-05
2.51064e-07
1.15384e-05
1.11297e-07
1.15468e-05
2.72498e-07
1.15434e-05
4.29526e-07
1.15409e-05
3.0781e-07
1.15493e-05
2.68168e-07
1.15631e-05
3.48149e-07
1.15597e-05
3.26927e-07
1.15493e-05
2.0309e-07
1.15549e-05
1.99358e-07
1.15617e-05
2.40679e-07
1.15554e-05
2.20243e-07
1.15489e-05
1.7319e-07
1.15536e-05
1.69727e-07
1.1563e-05
1.90428e-07
1.15659e-05
1.89866e-07
1.15657e-05
1.64446e-07
1.45405e-07
1.15684e-05
1.20782e-05
6.17671e-08
1.21036e-05
3.83711e-07
1.20875e-05
2.67133e-07
1.20847e-05
1.14098e-07
1.20982e-05
2.58977e-07
1.20982e-05
4.29554e-07
1.2092e-05
3.1398e-07
1.20982e-05
2.62047e-07
1.21135e-05
3.32788e-07
1.21123e-05
3.28129e-07
1.21014e-05
2.14001e-07
1.21044e-05
1.96347e-07
1.21128e-05
2.32295e-07
1.21097e-05
2.23356e-07
1.21035e-05
1.79426e-07
1.21059e-05
1.67329e-07
1.21149e-05
1.81344e-07
1.212e-05
1.84858e-07
1.21203e-05
1.64117e-07
1.43361e-07
1.21223e-05
1.2652e-05
5.23953e-08
1.26801e-05
3.5554e-07
1.26668e-05
2.80509e-07
1.26582e-05
1.22689e-07
1.26746e-05
2.42495e-07
1.26795e-05
4.24721e-07
1.26711e-05
3.22397e-07
1.26738e-05
2.59338e-07
1.26898e-05
3.16786e-07
1.26912e-05
3.26682e-07
1.26807e-05
2.24509e-07
1.26812e-05
1.95865e-07
1.269e-05
2.23449e-07
1.26899e-05
2.23453e-07
1.26847e-05
1.84677e-07
1.26853e-05
1.66689e-07
1.26932e-05
1.73454e-07
1.26998e-05
1.78248e-07
1.27013e-05
1.62704e-07
1.4172e-07
1.27029e-05
1.32537e-05
4.56418e-08
1.32832e-05
3.26011e-07
1.32737e-05
2.90058e-07
1.32605e-05
1.35901e-07
1.32775e-05
2.25463e-07
1.32876e-05
4.14617e-07
1.32786e-05
3.31426e-07
1.32776e-05
2.603e-07
1.32931e-05
3.01242e-07
1.32974e-05
3.22381e-07
1.32881e-05
2.33817e-07
1.32865e-05
1.97485e-07
1.32949e-05
2.15084e-07
1.32974e-05
2.20941e-07
1.32937e-05
1.88406e-07
1.32932e-05
1.67124e-07
1.32996e-05
1.67108e-07
1.33068e-05
1.71028e-07
1.33097e-05
1.59799e-07
1.40203e-07
1.33112e-05
1.38847e-05
4.1076e-08
1.39145e-05
2.9627e-07
1.39093e-05
2.95222e-07
1.3893e-05
1.52228e-07
1.39086e-05
2.09874e-07
1.3923e-05
4.00191e-07
1.39151e-05
3.39315e-07
1.3911e-05
2.64374e-07
1.39251e-05
2.87221e-07
1.39321e-05
3.1534e-07
1.39247e-05
2.41213e-07
1.39216e-05
2.00541e-07
1.39288e-05
2.07904e-07
1.39333e-05
2.16445e-07
1.39314e-05
1.90317e-07
1.39306e-05
1.67911e-07
1.39355e-05
1.62231e-07
1.39425e-05
1.63979e-07
1.39468e-05
1.55585e-07
1.38317e-07
1.39486e-05
1.45465e-05
3.82023e-08
1.45749e-05
2.67909e-07
1.45743e-05
2.95862e-07
1.45571e-05
1.69385e-07
1.45695e-05
1.97437e-07
1.45867e-05
3.83042e-07
1.45814e-05
3.44629e-07
1.45756e-05
2.70188e-07
1.45874e-05
2.75417e-07
1.45966e-05
3.06135e-07
1.45917e-05
2.46113e-07
1.45878e-05
2.04406e-07
1.45935e-05
2.02161e-07
1.45992e-05
2.10752e-07
1.45992e-05
1.90359e-07
1.45986e-05
1.68502e-07
1.46023e-05
1.58519e-07
1.46088e-05
1.57472e-07
1.46137e-05
1.50753e-07
1.35675e-07
1.46163e-05
1.52405e-05
3.65382e-08
1.52651e-05
2.43344e-07
1.52707e-05
2.90245e-07
1.52545e-05
1.85644e-07
1.52615e-05
1.90432e-07
1.52795e-05
3.65062e-07
1.52783e-05
3.45789e-07
1.52723e-05
2.76168e-07
1.52818e-05
2.65914e-07
1.52923e-05
2.95678e-07
1.52901e-05
2.48318e-07
1.52862e-05
2.08273e-07
1.52905e-05
1.97823e-07
1.52968e-05
2.04458e-07
1.52985e-05
1.88743e-07
1.52986e-05
1.68395e-07
1.53014e-05
1.55705e-07
1.53073e-05
1.5153e-07
1.53123e-05
1.45734e-07
1.32415e-07
1.53156e-05
1.59686e-05
3.52289e-08
1.60003e-05
2.11672e-07
1.60102e-05
2.80397e-07
1.59866e-05
2.09161e-07
1.59846e-05
1.92477e-07
1.60037e-05
3.45933e-07
1.60078e-05
3.41752e-07
1.60028e-05
2.81128e-07
1.60102e-05
2.58501e-07
1.60212e-05
2.84732e-07
1.60213e-05
2.4814e-07
1.60182e-05
2.11446e-07
1.60212e-05
1.94752e-07
1.60276e-05
1.98134e-07
1.60306e-05
1.85679e-07
1.60315e-05
1.67513e-07
1.60339e-05
1.53297e-07
1.60392e-05
1.46282e-07
1.60443e-05
1.40561e-07
1.28902e-07
1.60479e-05
1.67308e-05
3.50168e-08
1.67441e-05
1.98423e-07
1.67559e-05
2.68532e-07
1.67437e-05
2.21424e-07
1.67433e-05
1.92808e-07
1.67635e-05
3.2575e-07
1.67717e-05
3.33573e-07
1.67683e-05
2.84566e-07
1.6774e-05
2.52734e-07
1.67849e-05
2.73863e-07
1.67872e-05
2.45852e-07
1.67851e-05
2.13514e-07
1.67875e-05
1.92413e-07
1.67934e-05
1.92142e-07
1.67977e-05
1.8144e-07
1.67996e-05
1.65598e-07
1.68019e-05
1.50993e-07
1.68064e-05
1.41747e-07
1.68117e-05
1.35295e-07
1.25244e-07
1.68154e-05
1.75306e-05
3.47909e-08
1.75487e-05
1.80283e-07
1.75582e-05
2.59069e-07
1.75447e-05
2.34863e-07
1.75412e-05
1.9635e-07
1.756e-05
3.06948e-07
1.75715e-05
3.22101e-07
1.75703e-05
2.85791e-07
1.75748e-05
2.48229e-07
1.75852e-05
2.63447e-07
1.75893e-05
2.41752e-07
1.75885e-05
2.14306e-07
1.75903e-05
1.90614e-07
1.75959e-05
1.86531e-07
1.76007e-05
1.76592e-07
1.76037e-05
1.62604e-07
1.76062e-05
1.48497e-07
1.76102e-05
1.37827e-07
1.76153e-05
1.30196e-07
1.21207e-07
1.76193e-05
1.83684e-05
3.47718e-08
1.83793e-05
1.69335e-07
1.83925e-05
2.45924e-07
1.83842e-05
2.43104e-07
1.83797e-05
2.00906e-07
1.83957e-05
2.90886e-07
1.8409e-05
3.08871e-07
1.841e-05
2.84747e-07
1.84139e-05
2.44371e-07
1.84237e-05
2.53621e-07
1.84292e-05
2.36205e-07
1.84299e-05
2.13593e-07
1.84316e-05
1.88941e-07
1.84368e-05
1.81303e-07
1.84421e-05
1.71382e-07
1.84459e-05
1.58717e-07
1.84491e-05
1.45369e-07
1.84526e-05
1.34294e-07
1.84573e-05
1.25454e-07
1.16768e-07
1.84618e-05
1.92466e-05
3.45678e-08
1.92568e-05
1.59131e-07
1.92689e-05
2.33832e-07
1.92637e-05
2.48262e-07
1.92591e-05
2.05508e-07
1.92725e-05
2.77489e-07
1.92865e-05
2.94871e-07
1.92898e-05
2.81465e-07
1.92934e-05
2.40768e-07
1.93026e-05
2.44461e-07
1.93092e-05
2.29529e-07
1.93114e-05
2.11412e-07
1.93133e-05
1.87087e-07
1.9318e-05
1.76604e-07
1.93235e-05
1.65901e-07