/*--------------------------------*- C++ -*----------------------------------*\
| =========                 |                                                 |
| \\      /  F ield         | OpenFOAM: The Open Source CFD Toolbox           |
|  \\    /   O peration     | Version:  2506                                  |
|   \\  /    A nd           | Website:  www.openfoam.com                      |
|    \\/     M anipulation  |                                                 |
\*---------------------------------------------------------------------------*/
FoamFile
{
    version     2.0;
    format      ascii;
    arch        "LSB;label=32;scalar=64";
    class       volScalarField;
    location    "1.15";
    object      p;
}
// * * * * * * * * * * * * * * * * * * * * * * * * * * * * * * * * * * * * * //

dimensions      [0 2 -2 0 0 0 0];

internalField   nonuniform List<scalar> 
9600
(
-3.01478e-11
0.00153763
0.000526522
0.00188801
0.00251709
0.00160347
0.00134917
0.00256708
0.00137473
0.00174456
0.00201163
0.00299166
0.00301914
0.00353829
0.00404195
0.00524373
0.00586665
0.0075521
0.00905798
0.0141924
-4.63452e-07
0.00153935
0.000535992
0.00188358
0.00249092
0.00160498
0.00135598
0.00256356
0.00138355
0.0017273
0.00201275
0.00299322
0.00301353
0.00353198
0.00404845
0.00523068
0.00588615
0.00751754
0.00928855
0.0137842
-3.33977e-07
0.00154172
0.000544552
0.00187632
0.0024764
0.00161086
0.00136233
0.002555
0.00139371
0.00170889
0.00201871
0.00299504
0.00300376
0.0035294
0.00405823
0.00521963
0.00590101
0.00747647
0.00937646
0.0132349
9.04601e-07
0.00154331
0.00055305
0.00187081
0.00246175
0.00161834
0.00136754
0.00254157
0.00140601
0.00168895
0.00202836
0.00299879
0.00299046
0.00352876
0.00406923
0.00520349
0.00591427
0.00742554
0.00942121
0.0127636
3.3257e-06
0.00154406
0.00056332
0.00186666
0.00244538
0.00162728
0.00137206
0.00252438
0.00142223
0.00166739
0.00204091
0.00300236
0.00297405
0.00352746
0.00408094
0.00518345
0.00592824
0.0073659
0.00944135
0.0123432
6.8901e-06
0.00154413
0.000575889
0.00186269
0.00242697
0.00163708
0.00137607
0.00250536
0.00144242
0.00164474
0.00205572
0.0030044
0.00295632
0.00352434
0.00409385
0.00516045
0.00594103
0.00730134
0.00943518
0.0119507
1.14073e-05
0.00154355
0.000590712
0.00185858
0.00240677
0.00164711
0.00137995
0.00248605
0.00146574
0.00162186
0.00207247
0.0030053
0.00293832
0.00351879
0.00410782
0.00513487
0.00595109
0.00723384
0.00939882
0.0115801
1.66023e-05
0.00154237
0.000607551
0.00185437
0.00238516
0.00165711
0.00138422
0.00246713
0.00149134
0.00159941
0.00209106
0.00300545
0.00292027
0.00351046
0.00412244
0.00510735
0.0059567
0.00716418
0.009331
0.011229
2.22617e-05
0.00154076
0.000626039
0.0018501
0.00236257
0.00166701
0.0013893
0.00244869
0.00151864
0.00157762
0.00211135
0.00300495
0.00290221
0.00349934
0.00413714
0.00507872
0.00595588
0.00709274
0.00923264
0.0108938
2.82793e-05
0.00153886
0.000645776
0.00184577
0.0023394
0.00167675
0.0013954
0.00243061
0.00154719
0.00155646
0.00213305
0.00300381
0.00288426
0.00348572
0.00415115
0.00504975
0.00594703
0.00701968
0.00910544
0.0105697
3.46271e-05
0.00153649
0.000666439
0.00184133
0.00231593
0.00168614
0.00140255
0.00241267
0.00157675
0.00153578
0.00215581
0.00300206
0.0028664
0.00347013
0.00416351
0.0050211
0.00592883
0.00694469
0.00895119
0.0102556
4.13213e-05
0.0015345
0.000687812
0.00183674
0.00229241
0.00169494
0.00141071
0.00239467
0.00160716
0.00151541
0.00217914
0.00299971
0.00284853
0.00345329
0.00417316
0.00499317
0.00590032
0.00686661
0.00877226
0.00993962
4.83939e-05
0.00153246
0.000709776
0.00183189
0.00226901
0.00170291
0.00141984
0.00237648
0.00163828
0.00149518
0.00220248
0.0029969
0.00283044
0.00343595
0.0041792
0.00496614
0.00586113
0.00678322
0.00857303
0.0096226
5.58818e-05
0.00153037
0.000732287
0.00182671
0.00224588
0.00170988
0.0014299
0.00235797
0.00167004
0.00147498
0.00222525
0.00299394
0.00281164
0.00341874
0.00418106
0.0049397
0.00581156
0.00669163
0.00835872
0.00930351
6.38251e-05
0.0015282
0.000755348
0.00182111
0.00222311
0.00171571
0.00144088
0.00233909
0.00170284
0.00145483
0.0022469
0.00299126
0.00279155
0.00340209
0.00417823
0.00491294
0.00575269
0.00658895
0.00813309
0.00898281
7.22667e-05
0.00152583
0.000778991
0.001815
0.00220084
0.00172029
0.00145275
0.0023198
0.00173526
0.00143488
0.00226684
0.00298931
0.00276966
0.00338617
0.00417055
0.00488424
0.00568614
0.00647325
0.0078979
0.00866141
8.12567e-05
0.00152316
0.000803252
0.0018083
0.00217914
0.00172355
0.00146547
0.00230016
0.00176754
0.00141542
0.00228444
0.00298859
0.00274555
0.00337079
0.00415835
0.0048515
0.00561295
0.00634357
0.00765411
0.00834111
9.08539e-05
0.00152012
0.000828167
0.00180093
0.00215812
0.00172542
0.00147894
0.00228025
0.00179942
0.00139684
0.00229907
0.0029895
0.0027188
0.00335537
0.00414242
0.0048144
0.00553395
0.00620065
0.00740172
0.00802347
0.000101125
0.00151665
0.00085377
0.00179279
0.00213785
0.00172587
0.00149304
0.00226026
0.00183056
0.00137958
0.00231019
0.00299231
0.00268934
0.0033389
0.00412374
0.00476498
0.00544975
0.00604621
0.00713939
0.00770899
0.000112148
0.00151269
0.00088007
0.00178385
0.00211843
0.0017249
0.00150757
0.00224039
0.00186056
0.0013641
0.00231728
0.00299709
0.00265756
0.00332
0.00409407
0.00470538
0.00535936
0.00588435
0.00686625
0.00739777
0.000124007
0.00150814
0.000907051
0.00177405
0.00209991
0.00172255
0.00152233
0.00222092
0.00188901
0.00135071
0.00231992
0.00300386
0.00262401
0.00329725
0.00407494
0.0046352
0.00526079
0.00571758
0.00658315
0.00708856
0.000136793
0.00150291
0.000934692
0.00176338
0.00208233
0.00171894
0.00153702
0.00220211
0.0019156
0.00133971
0.00231778
0.00301232
0.00258946
0.00326897
0.00405543
0.0045549
0.00515166
0.00554877
0.0062925
0.0067787
0.000150601
0.00149688
0.000962976
0.00175183
0.00206563
0.00171431
0.00155134
0.00218424
0.00194
0.00133132
0.00231077
0.00302167
0.00255487
0.0032337
0.00403511
0.00446573
0.00502947
0.00537955
0.00599777
0.00646542
0.000165533
0.00148998
0.000991832
0.00173943
0.00204975
0.00170888
0.00156493
0.00216752
0.00196198
0.00132557
0.00229901
0.00303106
0.00252113
0.00319033
0.00401301
0.0043694
0.00489257
0.00520992
0.00570278
0.00614674
0.000181684
0.00148211
0.00102114
0.00172628
0.00203461
0.00170291
0.00157748
0.00215204
0.0019815
0.00132213
0.00228278
0.00303976
0.00248887
0.00313803
0.0039875
0.00426776
0.00474039
0.00503904
0.00541139
0.00582167
0.000199154
0.00147321
0.00105075
0.00171251
0.00202004
0.00169684
0.0015888
0.0021378
0.00199857
0.00132055
0.0022623
0.00304704
0.00245856
0.00307619
0.00395672
0.00416258
0.00457301
0.00486559
0.00512766
0.00548995
0.000218043
0.00146326
0.00108046
0.00169829
0.00200587
0.00169098
0.00159877
0.00212463
0.00201353
0.00132061
0.00223758
0.00305207
0.0024306
0.00300437
0.00391866
0.00405607
0.0043911
0.00468744
0.0048559
0.00515219
0.000238439
0.00145229
0.00110996
0.00168379
0.00199195
0.00168559
0.00160738
0.00211215
0.00202676
0.00132229
0.0022085
0.00305384
0.00240533
0.00292227
0.00387097
0.00395062
0.00419651
0.0045017
0.00460005
0.00481155
0.000260422
0.00144039
0.00113889
0.00166912
0.00197818
0.00168088
0.00161477
0.00210008
0.0020381
0.00132559
0.00217491
0.00305125
0.00238305
0.00282993
0.00381126
0.0038483
0.0039923
0.00430475
0.00436204
0.00447556
0.000284033
0.0014277
0.00116686
0.00165441
0.00196455
0.00167684
0.00162127
0.00208835
0.00204745
0.00133042
0.00213685
0.00304308
0.00236377
0.00272776
0.00373735
0.00375037
0.00378282
0.0040929
0.00414007
0.00415519
0.000309284
0.00141445
0.00119351
0.0016397
0.00195115
0.00167331
0.00162706
0.00207694
0.00205456
0.00133673
0.00209457
0.00302777
0.00234712
0.00261708
0.0036475
0.00365661
0.00357351
0.00386441
0.00392793
0.00386027
0.000336157
0.00140096
0.00121813
0.00162488
0.00193821
0.00167004
0.00163219
0.00206602
0.00205866
0.00134432
0.0020486
0.00300345
0.0023322
0.00250041
0.00354096
0.00356526
0.00336903
0.00362089
0.00371682
0.00359495
0.00036457
0.00138759
0.00124062
0.00160973
0.00192612
0.00166665
0.00163649
0.00205609
0.00205905
0.00135237
0.00199934
0.00296896
0.00231784
0.00238054
0.00341827
0.00347426
0.00317204
0.0033657
0.00349877
0.00335631
0.000394437
0.0013747
0.00126103
0.00159384
0.00191527
0.00166337
0.00163949
0.00204752
0.00205577
0.00135939
0.00194707
0.00292383
0.00230261
0.00225977
0.00328099
0.00338237
0.0029842
0.0031021
0.00326973
0.00313682
0.000425613
0.00136262
0.00127962
0.00157662
0.00190567
0.00166056
0.00164055
0.00204057
0.00203471
0.00136362
0.00189191
0.0028681
0.00228502
0.00213958
0.00313083
0.00328866
0.00280676
0.00283256
0.00302933
0.00292898
0.000457885
0.00135167
0.00129657
0.00155742
0.00189704
0.00165903
0.00163897
0.00203537
0.00202297
0.00136328
0.00183348
0.00280253
0.00226432
0.00202109
0.00296826
0.00319159
0.00264218
0.00255934
0.00277701
0.00272838
0.000491097
0.00134206
0.00131234
0.00153571
0.00188875
0.0016598
0.00163397
0.00203113
0.00201246
0.00135707
0.00177074
0.00272851
0.00224065
0.00190531
0.00279302
0.00308843
0.00249385
0.0022868
0.00250993
0.00253104
0.000525176
0.00133383
0.00132776
0.00151117
0.00187956
0.001664
0.00162518
0.0020265
0.00200276
0.00134441
0.00170207
0.00264719
0.00221464
0.00179327
0.00260506
0.0029747
0.00236363
0.00202324
0.00222601
0.00232939
0.000560044
0.0013269
0.00134357
0.00148378
0.00186772
0.00167271
0.00161308
0.00201908
0.00199471
0.00132613
0.00162557
0.00255857
0.00218747
0.00168668
0.0024051
0.00284514
0.00224911
0.00177785
0.00192873
0.00211379
0.000595639
0.00132107
0.00136032
0.00145404
0.00185132
0.00168611
0.00159874
0.00200588
0.00198889
0.00130571
0.00154004
0.00246112
0.00215991
0.00158779
0.00219541
0.00269549
0.00214469
0.00155677
0.00162673
0.00187831
0.000631981
0.00131601
0.00137846
0.00142316
0.00182841
0.00170374
0.00158388
0.00198449
0.00200836
0.00128823
0.00144626
0.00235187
0.00213093
0.00149962
0.00197994
0.00252318
0.00204376
0.00136176
0.00132902
0.00162342
0.000669094
0.00131135
0.00139821
0.00139281
0.00179723
0.00172369
0.00157064
0.00195308
0.00200743
0.00127692
0.00134632
0.0022279
0.00209724
0.00142498
0.0017637
0.00232725
0.00193931
0.0011926
0.00104288
0.00135282
0.000707034
0.00130664
0.00141958
0.00136512
0.00175648
0.00174347
0.00156111
0.00191118
0.00200121
0.00127365
0.00124452
0.00208779
0.0020537
0.00136462
0.00155376
0.00210943
0.00182427
0.00104793
0.000774998
0.00106987
0.000745891
0.0013015
0.00144238
0.00134211
0.0017058
0.00176007
0.00155697
0.00185986
0.00198608
0.0012783
0.00114678
0.00193276
0.00199433
0.00131582
0.0013579
0.00187487
0.00169206
0.000924046
0.000532897
0.000779134
0.000785759
0.00129577
0.0014657
0.00132289
0.0016458
0.00178211
0.00155923
0.00180169
0.00195815
0.00128944
0.00105914
0.00176596
0.00191428
0.00127362
0.00118075
0.00163084
0.00153869
0.000813586
0.000323225
0.000489915
0.000826749
0.00128939
0.00148806
0.00131377
0.00157782
0.00177574
0.00156764
0.00174065
0.00191503
0.00130299
0.000985782
0.00159281
0.00181149
0.0012308
0.00102247
0.00138562
0.00136465
0.000706997
0.000147518
0.000215494
0.000868975
0.00128246
0.00150745
0.00131433
0.00149931
0.00175233
0.00158068
0.0016824
0.0018568
0.00131219
0.000927241
0.00142136
0.00168765
0.00118004
0.000881302
0.00114521
0.00117339
0.000596586
1.28533e-06
-3.22977e-05
0.000912534
0.00127529
0.00152158
0.00132496
0.00142433
0.00170896
0.00159483
0.00163224
0.00178411
0.00130982
0.000881909
0.00125908
0.00154682
0.00111671
0.000753759
0.000913219
0.000968243
0.000477672
-0.000122765
-0.000247347
0.000957377
0.00126849
0.00152855
0.00134559
0.00135376
0.00164465
0.00160355
0.0015934
0.00170181
0.001291
0.000845465
0.00110978
0.00139571
0.00104038
0.00063546
0.000692058
0.000752321
0.00034693
-0.000231898
-0.000428066
0.0010032
0.00126295
0.00152737
0.00137621
0.00129252
0.00156142
0.00159794
0.00156616
0.00161935
0.00125529
0.000809096
0.000973298
0.00124133
0.000952407
0.000523747
0.000482827
0.000529328
0.00020181
-0.000333989
-0.000576391
0.00104952
0.00125972
0.00151741
0.0014027
0.00124554
0.00145646
0.00156978
0.00154734
0.00154535
0.00120451
0.000765231
0.000847684
0.00108793
0.000856149
0.000418547
0.00028696
0.000303404
4.17535e-05
-0.000437525
-0.000698921
0.00109568
0.00125973
0.00149847
0.00142526
0.00121585
0.00135027
0.00151562
0.00152943
0.00148627
0.00114567
0.000711436
0.000726522
0.0009355
0.000754454
0.000320365
0.000107147
7.85405e-05
-0.000131558
-0.000548764
-0.00080608
0.00114079
0.00126359
0.00147083
0.00143926
0.00120306
0.00124761
0.00142989
0.00150383
0.00144239
0.00109086
0.000649669
0.000604012
0.000782652
0.000647421
0.000229895
-5.3497e-05
-0.000140079
-0.000315907
-0.000670381
-0.000909121
0.001184
0.00127153
0.00144086
0.00144155
0.00120387
0.00115654
0.0013188
0.00145345
0.00141072
0.00104867
0.000585008
0.000478533
0.000625101
0.000533281
0.00014513
-0.000191421
-0.00034491
-0.000507826
-0.000802169
-0.00101524
0.00122454
0.00128345
0.00140888
0.00143023
0.00121073
0.00108301
0.00119298
0.00137245
0.00137874
0.00102078
0.000528262
0.000353075
0.000459563
0.000407962
6.11899e-05
-0.000306645
-0.000527634
-0.000700707
-0.000943181
-0.00112547
0.00126144
0.00129892
0.00137719
0.00140459
0.00121509
0.00102929
0.00106291
0.00126006
0.00133028
0.00100537
0.000487262
0.00023401
0.000287968
0.000267126
-2.73309e-05
-0.000404981
-0.000682023
-0.00088494
-0.00109178
-0.00123773
0.00129394
0.00131685
0.00134799
0.00136576
0.00121034
0.000995148
0.000947782
0.00112047
0.00125312
0.000993449
0.000464142
0.000131186
0.000115612
0.000108913
-0.000127651
-0.000493739
-0.00080859
-0.00104973
-0.0012431
-0.00135091
0.00132161
0.00133532
0.00132312
0.00131655
0.0011934
0.000975558
0.000850629
0.000968723
0.00114384
0.000968963
0.000457331
5.20412e-05
-4.81513e-05
-6.23376e-05
-0.000245714
-0.000581278
-0.000914571
-0.00118805
-0.00138861
-0.00146588
0.00134424
0.00135194
0.00130328
0.0012613
0.00116158
0.000957138
0.000775294
0.000820207
0.0010051
0.000917602
0.000458783
-5.61992e-07
-0.000192339
-0.000238685
-0.00038288
-0.000676334
-0.00100808
-0.00130115
-0.00151821
-0.00158124
0.00136188
0.00136499
0.00128788
0.00120522
0.00111432
0.000934536
0.000720831
0.000687089
0.000845711
0.000833268
0.000452896
-2.95526e-05
-0.000308622
-0.000409036
-0.000533705
-0.000784363
-0.00109864
-0.00139543
-0.00162565
-0.00169054
0.00137481
0.00137327
0.00127527
0.00115124
0.00105429
0.000901853
0.00067931
0.000575167
0.000681116
0.000718032
0.000426183
-4.26893e-05
-0.000393432
-0.000561636
-0.000689762
-0.000904867
-0.00119331
-0.00147997
-0.00171219
-0.00178603
0.00138325
0.00137603
0.00126306
0.00110118
0.000985935
0.000856028
0.000641501
0.000484271
0.000525737
0.000578121
0.000370835
-5.45732e-05
-0.000450319
-0.00068738
-0.000840467
-0.00103194
-0.00129392
-0.00156317
-0.00178413
-0.00186347
0.00138729
0.00137292
0.00124883
0.00105579
0.000913596
0.000796605
0.000600342
0.000411514
0.000387558
0.000425682
0.000286675
-7.75011e-05
-0.000486312
-0.000782222
-0.000975243
-0.00115876
-0.00139655
-0.00164753
-0.0018495
-0.00192384
0.00138699
0.00136376
0.00123093
0.00101473
0.000841828
0.000725194
0.000550395
0.000349623
0.000268724
0.00027484
0.000179714
-0.000119269
-0.000513515
-0.000849027
-0.00108547
-0.00127682
-0.00149533
-0.00172956
-0.0019121
-0.00197191
0.00138208
0.00134906
0.00120759
0.00097588
0.000773147
0.000645232
0.000488841
0.000290527
0.00016697
0.000134821
5.90671e-05
-0.000181116
-0.000542137
-0.000893804
-0.00116692
-0.00137771
-0.00158534
-0.00180324
-0.00196958
-0.00201094
0.00137219
0.00132933
0.00117857
0.000936366
0.000707954
0.000560913
0.000415814
0.000228153
7.82515e-05
9.32759e-06
-6.42831e-05
-0.000258642
-0.000577552
-0.000924541
-0.00122052
-0.00145358
-0.00165993
-0.00186339
-0.0020164
-0.00204107
0.00135711
0.00130485
0.00114395
0.000894068
0.000645417
0.000475393
0.000332698
0.000158857
-3.25428e-06
-0.000102307
-0.00018189
-0.000344891
-0.000620678
-0.000947367
-0.00125027
-0.00149995
-0.00171165
-0.0019046
-0.00204698
-0.00205915
0.00133656
0.0012758
0.00110424
0.00084747
0.000583574
0.000390643
0.000242313
8.02717e-05
-8.40487e-05
-0.000203884
-0.000291138
-0.000432352
-0.000667808
-0.000963332
-0.00125849
-0.00151489
-0.00173266
-0.00191945
-0.0020528
-0.00205735
0.00131032
0.00124225
0.00106016
0.000796206
0.00051987
0.000305496
0.000146806
-7.67085e-06
-0.000168394
-0.000299323
-0.000393626
-0.000517533
-0.000714759
-0.000971444
-0.00124475
-0.00149568
-0.00171358
-0.00189598
-0.00202162
-0.00202277
0.00127833
0.00120415
0.00101208
0.000740016
0.000453208
0.00021924
4.64247e-05
-0.000105563
-0.00026043
-0.000393521
-0.00049013
-0.000598295
-0.00075803
-0.00097029
-0.00120803
-0.00143803
-0.00164352
-0.00181587
-0.0019329
-0.00193338
0.00124097
0.00116163
0.000960069
0.000678655
0.000382178
0.000131279
-5.76961e-05
-0.000214146
-0.000365438
-0.000494964
-0.000587017
-0.00067658
-0.000796257
-0.000956659
-0.00114439
-0.00133519
-0.00150991
-0.00165626
-0.0017533
-0.00174736
0.00119863
0.00111464
0.000903375
0.000612606
0.000306517
3.96658e-05
-0.000166207
-0.000332471
-0.000486224
-0.000613075
-0.00069916
-0.000766554
-0.000837767
-0.00093047
-0.00104418
-0.00116723
-0.00129002
-0.00139723
-0.00146448
-0.00144124
0.00115366
0.00106261
0.000841275
0.000541448
0.000226287
-5.58078e-05
-0.000280335
-0.00046104
-0.000622628
-0.000751777
-0.000837519
-0.000894567
-0.000926254
-0.000933276
-0.00091335
-0.000870128
-0.000827685
-0.000818135
-0.000858442
-0.00090467
0.0011061
0.00100593
0.000775332
0.00046565
0.000140207
-0.00015669
-0.000399668
-0.000600833
-0.000775636
-0.000913341
-0.00100483
-0.00106313
-0.00109858
-0.00110711
-0.00105951
-0.000877321
-0.000479044
0.000108241
0.000706693
0.00112261
0.00105306
0.000947172
0.000708693
0.00038859
4.78816e-05
-0.000266328
-0.000528674
-0.000749254
-0.00094224
-0.00109989
-0.00120712
-0.00124595
-0.00118952
-0.000988889
-0.000593352
-1.24886e-05
0.000634871
0.00119771
0.00155555
0.00163939
0.000995588
0.000886135
0.000642443
0.000311891
-4.54079e-05
-0.000384743
-0.000677834
-0.000921043
-0.00111148
-0.00124643
-0.00130625
-0.00124621
-0.000998891
-0.000552994
-6.71453e-06
0.000521955
0.000974986
0.00132598
0.00154588
0.001579
0.000937936
0.000822346
0.000572289
0.0002354
-0.0001289
-0.000486781
-0.000828576
-0.00113513
-0.00136182
-0.00144163
-0.00130231
-0.000942022
-0.000469362
2.60645e-05
0.000505127
0.00093821
0.00131136
0.00160263
0.0017674
0.00174319
0.000883689
0.000762514
0.00049784
0.000142646
-0.000232326
-0.000569702
-0.000834726
-0.00102599
-0.00113621
-0.00117123
-0.00115081
-0.00107483
-0.000912382
-0.000619967
-0.000137155
0.000515745
0.00118879
0.00172994
0.00203965
0.00205665
0.00083401
0.0007082
0.000448322
9.3296e-05
-0.0003003
-0.000689798
-0.00104566
-0.00130954
-0.001407
-0.00129371
-0.00099927
-0.000588823
-0.000129317
0.00032283
0.000739819
0.00111589
0.00143221
0.00166662
0.001779
0.00171046
0.000791761
0.000654337
0.000378236
9.37209e-06
-0.000385076
-0.000746721
-0.00103686
-0.0012391
-0.00131966
-0.00124485
-0.000998233
-0.000628445
-0.000210849
0.000197951
0.000567167
0.000904237
0.00120724
0.00144939
0.00158375
0.00154217
0.0219631
0.0144956
0.00460016
-0.00226255
-0.00425469
-0.00364657
-0.00287806
-0.00249286
-0.00233482
-0.00229307
-0.0023067
-0.0023183
-0.00234387
-0.00244651
-0.00260875
-0.00273545
-0.00278088
-0.00280416
-0.00286919
-0.00296493
-0.00306166
-0.00314207
-0.00320005
-0.00326494
-0.0033518
-0.00343739
-0.00352203
-0.00361065
-0.00368785
-0.00376464
-0.00385754
-0.00395007
-0.00402803
-0.00411047
-0.00421611
-0.00433255
-0.00443369
-0.00453337
-0.00465972
-0.00480062
-0.0049268
-0.00504411
-0.00516922
-0.00529672
-0.00541256
-0.00551681
-0.00562191
-0.00571724
-0.00580934
-0.00591745
-0.00604699
-0.00618225
-0.00631741
-0.00645844
-0.0065958
-0.00672597
-0.00685182
-0.00697581
-0.00710305
-0.00723706
-0.00738228
-0.00752144
-0.00766037
-0.00780627
-0.00794747
-0.00809171
-0.00823486
-0.00837687
-0.00851642
-0.0086589
-0.00881605
-0.00896198
-0.00911068
-0.00927013
-0.00943468
-0.00961455
-0.00977752
-0.00993705
-0.0101086
-0.0102648
-0.0104454
-0.0106289
-0.010777
-0.0109558
-0.0111302
-0.0112719
-0.0114589
-0.0116429
-0.0117899
-0.0119646
-0.0121624
-0.0123207
-0.0124812
-0.0126708
-0.0128441
-0.0130058
-0.0131904
-0.0133673
-0.0135447
-0.013735
0.0207322
0.01431
0.00468355
-0.00212131
-0.00416635
-0.00360336
-0.002852
-0.00247554
-0.00232235
-0.00228329
-0.00229864
-0.00231134
-0.00233759
-0.00244091
-0.00260397
-0.0027314
-0.00277728
-0.00280082
-0.00286612
-0.00296216
-0.00305917
-0.00313983
-0.00319797
-0.00326297
-0.00334998
-0.00343569
-0.00352042
-0.00360914
-0.00368642
-0.00376327
-0.00385625
-0.00394887
-0.00402688
-0.00410936
-0.00421505
-0.00433157
-0.00443278
-0.00453248
-0.00465886
-0.00479983
-0.00492607
-0.0050434
-0.00516855
-0.00529609
-0.00541197
-0.00551626
-0.00562139
-0.00571675
-0.00580886
-0.00591698
-0.00604654
-0.00618183
-0.006317
-0.00645806
-0.00659544
-0.00672562
-0.00685149
-0.0069755
-0.00710274
-0.00723677
-0.00738199
-0.00752117
-0.0076601
-0.00780602
-0.00794722
-0.00809147
-0.00823463
-0.00837665
-0.00851621
-0.0086587
-0.00881585
-0.0089618
-0.0091105
-0.00926995
-0.00943451
-0.00961439
-0.00977738
-0.00993691
-0.0101085
-0.0102647
-0.0104453
-0.0106288
-0.0107769
-0.0109557
-0.0111301
-0.0112718
-0.0114588
-0.0116429
-0.0117899
-0.0119645
-0.0121623
-0.0123207
-0.0124811
-0.0126707
-0.0128441
-0.0130058
-0.0131904
-0.0133673
-0.0135447
-0.013735
0.0197032
0.0141672
0.00487386
-0.00185216
-0.00401391
-0.00354687
-0.00282423
-0.00245442
-0.00230572
-0.00227045
-0.00228864
-0.0023034
-0.002331
-0.00243516
-0.00259891
-0.00272702
-0.0027735
-0.00279751
-0.00286319
-0.00295951
-0.00305677
-0.00313769
-0.00319603
-0.00326117
-0.00334834
-0.00343417
-0.00351899
-0.00360782
-0.00368517
-0.00376205
-0.00385511
-0.00394781
-0.00402587
-0.00410837
-0.00421411
-0.00433071
-0.00443197
-0.00453169
-0.00465811
-0.00479914
-0.00492542
-0.00504278
-0.00516796
-0.00529555
-0.00541146
-0.00551577
-0.00562093
-0.00571632
-0.00580844
-0.00591656
-0.00604615
-0.00618146
-0.00631665
-0.00645773
-0.00659513
-0.00672533
-0.0068512
-0.00697522
-0.00710247
-0.0072365
-0.00738174
-0.00752093
-0.00765987
-0.0078058
-0.00794701
-0.00809127
-0.00823443
-0.00837646
-0.00851603
-0.00865852
-0.00881568
-0.00896164
-0.00911034
-0.0092698
-0.00943436
-0.00961426
-0.00977726
-0.00993678
-0.0101084
-0.0102646
-0.0104452
-0.0106287
-0.0107768
-0.0109557
-0.01113
-0.0112717
-0.0114587
-0.0116428
-0.0117898
-0.0119645
-0.0121623
-0.0123206
-0.0124811
-0.0126707
-0.012844
-0.0130058
-0.0131903
-0.0133673
-0.0135447
-0.013735
0.0187684
0.0140093
0.00510421
-0.00151735
-0.0038074
-0.00346796
-0.00278352
-0.00242151
-0.00227971
-0.002251
-0.00227389
-0.00229227
-0.00232254
-0.002428
-0.00259209
-0.00272067
-0.00276816
-0.00279325
-0.00285959
-0.00295616
-0.00305361
-0.00313489
-0.00319363
-0.00325906
-0.00334644
-0.00343242
-0.00351739
-0.0036064
-0.00368385
-0.00376076
-0.00385389
-0.00394668
-0.0040248
-0.00410733
-0.0042131
-0.00432976
-0.00443108
-0.00453084
-0.00465732
-0.00479841
-0.00492472
-0.00504211
-0.00516734
-0.00529498
-0.00541092
-0.00551525
-0.00562045
-0.00571587
-0.00580798
-0.00591612
-0.00604573
-0.00618108
-0.00631629
-0.00645739
-0.00659481
-0.00672502
-0.00685091
-0.00697493
-0.00710219
-0.00723623
-0.00738149
-0.00752069
-0.00765964
-0.00780558
-0.0079468
-0.00809106
-0.00823423
-0.00837627
-0.00851585
-0.00865833
-0.00881551
-0.00896147
-0.00911017
-0.00926964
-0.00943421
-0.00961412
-0.00977713
-0.00993666
-0.0101083
-0.0102645
-0.0104451
-0.0106286
-0.0107767
-0.0109556
-0.0111299
-0.0112716
-0.0114586
-0.0116428
-0.0117898
-0.0119644
-0.0121622
-0.0123206
-0.012481
-0.0126706
-0.012844
-0.0130057
-0.0131903
-0.0133673
-0.0135447
-0.013735
0.0178408
0.0137999
0.00533322
-0.00116533
-0.00358003
-0.00337822
-0.00273602
-0.00238006
-0.00224503
-0.00222432
-0.00225325
-0.00227672
-0.00231122
-0.00241864
-0.00258267
-0.00271138
-0.0027604
-0.00278745
-0.00285491
-0.00295166
-0.00304916
-0.00313089
-0.0031903
-0.00325628
-0.00334393
-0.00343009
-0.00351531
-0.00360463
-0.0036823
-0.00375929
-0.00385246
-0.00394536
-0.00402361
-0.00410617
-0.00421191
-0.00432859
-0.00442999
-0.00452985
-0.00465638
-0.0047975
-0.00492386
-0.00504131
-0.00516662
-0.00529431
-0.00541029
-0.00551463
-0.00561988
-0.00571533
-0.00580745
-0.0059156
-0.00604525
-0.00618063
-0.00631587
-0.00645701
-0.00659445
-0.00672467
-0.00685057
-0.0069746
-0.00710188
-0.00723593
-0.00738121
-0.00752043
-0.00765938
-0.00780534
-0.00794657
-0.00809083
-0.00823402
-0.00837606
-0.00851564
-0.00865813
-0.00881533
-0.00896129
-0.00910999
-0.00926947
-0.00943403
-0.00961397
-0.00977699
-0.00993651
-0.0101081
-0.0102643
-0.010445
-0.0106285
-0.0107766
-0.0109555
-0.0111299
-0.0112715
-0.0114586
-0.0116427
-0.0117897
-0.0119643
-0.0121622
-0.0123206
-0.012481
-0.0126706
-0.012844
-0.0130057
-0.0131903
-0.0133672
-0.0135446
-0.0137351
0.0169211
0.013543
0.00555371
-0.000808618
-0.00334213
-0.00328366
-0.00268781
-0.00233598
-0.00220593
-0.0021931
-0.00222844
-0.0022577
-0.0022974
-0.00240716
-0.00257072
-0.00269921
-0.00275018
-0.00278001
-0.00284903
-0.0029459
-0.00304325
-0.00312547
-0.00318588
-0.00325263
-0.00334062
-0.00342696
-0.00351252
-0.00360231
-0.00368038
-0.00375753
-0.00385074
-0.0039438
-0.00402231
-0.00410495
-0.00421053
-0.00432711
-0.00442866
-0.00452868
-0.00465524
-0.00479634
-0.00492274
-0.00504032
-0.00516574
-0.0052935
-0.00540951
-0.00551389
-0.00561918
-0.00571467
-0.00580683
-0.005915
-0.00604467
-0.0061801
-0.00631539
-0.00645657
-0.00659403
-0.00672427
-0.00685018
-0.00697422
-0.00710152
-0.00723558
-0.00738089
-0.00752012
-0.00765908
-0.00780508
-0.00794632
-0.00809059
-0.00823377
-0.00837582
-0.00851542
-0.0086579
-0.00881511
-0.00896109
-0.00910978
-0.00926927
-0.00943384
-0.00961379
-0.00977682
-0.00993634
-0.010108
-0.0102642
-0.0104448
-0.0106284
-0.0107765
-0.0109554
-0.0111298
-0.0112714
-0.0114585
-0.0116426
-0.0117896
-0.0119643
-0.0121621
-0.0123205
-0.0124809
-0.0126706
-0.0128439
-0.0130056
-0.0131902
-0.0133672
-0.0135446
-0.0137351
0.0160211
0.013246
0.00576207
-0.00045049
-0.00309475
-0.00318436
-0.00264011
-0.00229142
-0.00216434
-0.00215897
-0.00220102
-0.0022365
-0.00228186
-0.00239415
-0.00255695
-0.00268498
-0.00273817
-0.00277128
-0.00284212
-0.00293904
-0.00303605
-0.00311879
-0.00318044
-0.00324816
-0.00333647
-0.00342297
-0.00350889
-0.00359928
-0.00367794
-0.00375537
-0.00384859
-0.0039419
-0.00402089
-0.00410371
-0.004209
-0.00432535
-0.00442707
-0.00452735
-0.00465387
-0.00479481
-0.00492125
-0.00503902
-0.00516462
-0.00529248
-0.00540857
-0.005513
-0.00561834
-0.00571389
-0.00580609
-0.00591426
-0.00604394
-0.00617943
-0.0063148
-0.00645605
-0.00659354
-0.00672378
-0.00684971
-0.00697377
-0.00710108
-0.00723517
-0.0073805
-0.00751975
-0.00765874
-0.00780478
-0.00794603
-0.0080903
-0.0082335
-0.00837556
-0.00851517
-0.00865765
-0.00881487
-0.00896085
-0.00910954
-0.00926904
-0.00943361
-0.00961357
-0.00977662
-0.00993614
-0.0101078
-0.010264
-0.0104446
-0.0106282
-0.0107763
-0.0109552
-0.0111296
-0.0112713
-0.0114583
-0.0116425
-0.0117895
-0.0119642
-0.012162
-0.0123204
-0.0124808
-0.0126705
-0.0128439
-0.0130056
-0.0131902
-0.0133671
-0.0135446
-0.0137352
0.0151504
0.0129112
0.00595217
-9.28793e-05
-0.00283647
-0.00307826
-0.00259241
-0.00224692
-0.00212083
-0.00212246
-0.00217161
-0.00221373
-0.00226507
-0.00238005
-0.00254203
-0.0026695
-0.002725
-0.00276165
-0.00283445
-0.00293135
-0.00302791
-0.00311119
-0.00317425
-0.00324305
-0.00333165
-0.00341824
-0.00350451
-0.00359555
-0.00367493
-0.00375269
-0.00384593
-0.00393957
-0.00401929
-0.00410246
-0.00420736
-0.00432336
-0.00442531
-0.00452593
-0.00465232
-0.00479294
-0.00491934
-0.00503734
-0.00516314
-0.00529113
-0.00540738
-0.00551194
-0.00561736
-0.00571299
-0.00580525
-0.00591339
-0.00604303
-0.00617857
-0.00631406
-0.00645541
-0.00659293
-0.00672319
-0.00684913
-0.00697321
-0.00710055
-0.00723466
-0.00738001
-0.00751929
-0.00765832
-0.00780442
-0.0079457
-0.00808998
-0.00823318
-0.00837526
-0.00851489
-0.00865736
-0.00881458
-0.00896057
-0.00910927
-0.00926878
-0.00943333
-0.00961331
-0.00977637
-0.00993589
-0.0101076
-0.0102638
-0.0104444
-0.010628
-0.0107761
-0.010955
-0.0111294
-0.0112711
-0.0114582
-0.0116424
-0.0117893
-0.011964
-0.0121619
-0.0123203
-0.0124807
-0.0126704
-0.0128438
-0.0130055
-0.0131901
-0.0133671
-0.0135445
-0.0137354
0.0143145
0.0125398
0.00611868
0.000263246
-0.00256553
-0.00296316
-0.0025441
-0.00220313
-0.00207608
-0.0020839
-0.00214042
-0.00218957
-0.00224722
-0.00236512
-0.00252634
-0.00265319
-0.00271105
-0.00275136
-0.00282619
-0.00292306
-0.00301913
-0.00310297
-0.00316755
-0.00323749
-0.00332635
-0.00341299
-0.00349959
-0.00359128
-0.00367144
-0.00374954
-0.00384274
-0.00393676
-0.00401743
-0.00410111
-0.00420562
-0.0043212
-0.00442345
-0.00452451
-0.0046507
-0.00479081
-0.00491709
-0.00503529
-0.00516124
-0.00528936
-0.00540582
-0.00551062
-0.00561622
-0.00571202
-0.00580439
-0.00591246
-0.00604195
-0.00617749
-0.00631311
-0.00645459
-0.00659219
-0.00672248
-0.00684844
-0.00697254
-0.00709991
-0.00723404
-0.0073794
-0.0075187
-0.0076578
-0.00780397
-0.0079453
-0.00808959
-0.00823279
-0.00837491
-0.00851458
-0.00865703
-0.00881424
-0.00896023
-0.00910895
-0.00926846
-0.009433
-0.00961299
-0.00977606
-0.00993558
-0.0101073
-0.0102635
-0.0104441
-0.0106277
-0.0107759
-0.0109547
-0.0111292
-0.0112709
-0.0114579
-0.0116422
-0.0117892
-0.0119639
-0.0121618
-0.0123201
-0.0124806
-0.0126703
-0.0128437
-0.0130054
-0.01319
-0.013367
-0.0135444
-0.0137355
0.0135174
0.0121358
0.00625819
0.00061638
-0.00228144
-0.0028376
-0.00249494
-0.00216102
-0.00203092
-0.0020435
-0.00210738
-0.00216396
-0.00222832
-0.00234947
-0.00251002
-0.0026362
-0.00269639
-0.00274046
-0.00281742
-0.0029143
-0.00300988
-0.00309429
-0.00316044
-0.00323157
-0.00332069
-0.00340738
-0.0034943
-0.00358666
-0.00366758
-0.00374602
-0.00383913
-0.00393355
-0.00401527
-0.0040996
-0.00420376
-0.00431889
-0.00442153
-0.00452313
-0.00464909
-0.00478858
-0.00491464
-0.00503298
-0.00515899