/*--------------------------------*- C++ -*----------------------------------*\
| =========                 |                                                 |
| \\      /  F ield         | OpenFOAM: The Open Source CFD Toolbox           |
|  \\    /   O peration     | Version:  2506                                  |
|   \\  /    A nd           | Website:  www.openfoam.com                      |
|    \\/     M anipulation  |                                                 |
\*---------------------------------------------------------------------------*/
FoamFile
{
    version     2.0;
    format      ascii;
    arch        "LSB;label=32;scalar=64";
    class       surfaceScalarField;
    location    "1.15";
    object      phi;
}
// * * * * * * * * * * * * * * * * * * * * * * * * * * * * * * * * * * * * * //

dimensions      [0 3 -1 0 0 0 0];

oriented        oriented;

internalField   nonuniform List<scalar> 
19000
(
1.16623e-06
-3.75481e-07
1.1822e-06
1.40286e-07
1.20906e-06
-6.17639e-08
1.1729e-06
4.32301e-07
1.14455e-06
-1.15775e-09
1.16569e-06
2.42597e-07
1.19686e-06
-6.55594e-07
1.18786e-06
-4.54825e-07
1.20808e-06
5.66336e-08
1.18578e-06
4.46713e-08
1.18742e-06
1.83019e-07
1.17803e-06
4.10606e-07
1.16818e-06
1.05825e-07
1.16417e-06
3.55126e-08
1.17062e-06
-1.01076e-07
1.16821e-06
1.68239e-08
1.1761e-06
-6.82339e-08
1.16428e-06
-7.24134e-08
1.16694e-06
1.89571e-09
-1.68513e-07
1.1192e-06
1.22362e-06
-3.74836e-07
1.24106e-06
1.22845e-07
1.2675e-06
-8.82111e-08
1.23577e-06
4.64034e-07
1.20439e-06
3.02228e-08
1.22724e-06
2.19749e-07
1.25709e-06
-6.85442e-07
1.2477e-06
-4.45442e-07
1.26593e-06
3.84018e-08
1.2477e-06
6.2904e-08
1.24152e-06
1.89204e-07
1.24409e-06
4.08031e-07
1.22515e-06
1.24773e-07
1.22947e-06
3.11835e-08
1.22371e-06
-9.53119e-08
1.23611e-06
4.42637e-09
1.2256e-06
-5.77287e-08
1.23502e-06
-8.18357e-08
1.21177e-06
2.51459e-08
-1.60079e-07
1.20334e-06
1.2825e-06
-3.7455e-07
1.30374e-06
1.01606e-07
1.32651e-06
-1.10989e-07
1.30421e-06
4.86334e-07
1.26928e-06
6.51553e-08
1.29116e-06
1.97867e-07
1.31445e-06
-7.08734e-07
1.3121e-06
-4.43089e-07
1.32449e-06
2.60185e-08
1.31558e-06
7.18083e-08
1.3002e-06
2.04582e-07
1.30979e-06
3.98447e-07
1.28709e-06
1.47473e-07
1.29156e-06
2.67133e-08
1.28165e-06
-8.5406e-08
1.29325e-06
-7.16922e-09
1.28413e-06
-4.86117e-08
1.28865e-06
-8.63613e-08
1.27811e-06
3.56865e-08
-1.40825e-07
1.25886e-06
1.34298e-06
-3.73429e-07
1.36716e-06
7.74295e-08
1.38488e-06
-1.28713e-07
1.37205e-06
4.99167e-07
1.33697e-06
1.00236e-07
1.35485e-06
1.79988e-07
1.36879e-06
-7.22678e-07
1.37509e-06
-4.49386e-07
1.38388e-06
1.72311e-08
1.38176e-06
7.39308e-08
1.36465e-06
2.2169e-07
1.37188e-06
3.91217e-07
1.35337e-06
1.65977e-07
1.35172e-06
2.8369e-08
1.34324e-06
-7.69321e-08
1.34994e-06
-1.38618e-08
1.34465e-06
-4.33293e-08
1.34555e-06
-8.72596e-08
1.34003e-06
4.12139e-08
-1.19485e-07
1.31868e-06
1.4058e-06
-3.70878e-07
1.43009e-06
5.31415e-08
1.44235e-06
-1.4097e-07
1.43639e-06
5.05125e-07
1.40604e-06
1.30586e-07
1.41847e-06
1.67553e-07
1.42348e-06
-7.27679e-07
1.43533e-06
-4.61245e-07
1.44377e-06
8.79409e-09
1.4446e-06
7.31028e-08
1.4317e-06
2.34594e-07
1.43433e-06
3.8858e-07
1.42072e-06
1.79586e-07
1.41499e-06
3.41019e-08
1.40664e-06
-6.85847e-08
1.41085e-06
-1.80652e-08
1.40642e-06
-3.88998e-08
1.40625e-06
-8.70922e-08
1.40232e-06
4.51408e-08
-9.82245e-08
1.38106e-06
1.47202e-06
-3.6722e-07
1.49316e-06
3.1999e-08
1.50026e-06
-1.48066e-07
1.49811e-06
5.07273e-07
1.47624e-06
1.52454e-07
1.48416e-06
1.59636e-07
1.4824e-06
-7.25918e-07
1.49529e-06
-4.74133e-07
1.50451e-06
-4.26722e-10
1.50635e-06
7.1255e-08
1.49844e-06
2.42512e-07
1.49895e-06
3.88063e-07
1.48842e-06
1.90116e-07
1.48177e-06
4.07539e-08
1.47277e-06
-5.95865e-08
1.47552e-06
-2.08139e-08
1.47114e-06
-3.45174e-08
1.46978e-06
-8.57284e-08
1.46746e-06
4.74531e-08
-7.70465e-08
1.44629e-06
1.5423e-06
-3.63301e-07
1.55814e-06
1.61527e-08
1.56073e-06
-1.50655e-07
1.56044e-06
5.0757e-07
1.54809e-06
1.64797e-07
1.55391e-06
1.53816e-07
1.54758e-06
-7.19581e-07
1.55798e-06
-4.84542e-07
1.56699e-06
-9.4274e-09
1.56932e-06
6.89212e-08
1.56477e-06
2.47058e-07
1.5658e-06
3.87037e-07
1.55759e-06
1.98326e-07
1.55164e-06
4.66986e-08
1.54249e-06
-5.04365e-08
1.54409e-06
-2.24121e-08
1.5398e-06
-3.02239e-08
1.53682e-06
-8.2756e-08
1.53599e-06
4.829e-08
-5.61782e-08
1.51512e-06
1.61665e-06
-3.59825e-07
1.62682e-06
5.98486e-09
1.62568e-06
-1.49517e-07
1.62662e-06
5.06631e-07
1.62247e-06
1.68943e-07
1.62844e-06
1.47848e-07
1.619e-06
-7.10134e-07
1.62517e-06
-4.90715e-07
1.63237e-06
-1.66263e-08
1.63492e-06
6.63674e-08
1.6323e-06
2.49675e-07
1.63519e-06
3.84151e-07
1.62939e-06
2.04126e-07
1.62478e-06
5.13115e-08
1.61611e-06
-4.17677e-08
1.61685e-06
-2.31562e-08
1.61285e-06
-2.62232e-08
1.60813e-06
-7.80335e-08
1.60836e-06
4.80573e-08
-3.5911e-08
1.5881e-06
1.69471e-06
-3.56965e-07
1.70024e-06
4.60387e-10
1.69628e-06
-1.45562e-07
1.69858e-06
5.04333e-07
1.70023e-06
1.67294e-07
1.70742e-06
1.40661e-07
1.69567e-06
-6.98385e-07
1.69732e-06
-4.92368e-07
1.70172e-06
-2.10251e-08
1.7042e-06
6.38929e-08
1.70281e-06
2.5106e-07
1.70795e-06
3.79016e-07
1.70468e-06
2.07395e-07
1.70153e-06
5.44608e-08
1.69376e-06
-3.40024e-08
1.69382e-06
-2.32175e-08
1.69035e-06
-2.27528e-08
1.68398e-06
-7.16575e-08
1.68484e-06
4.71945e-08
-1.65394e-08
1.66547e-06
1.77619e-06
-3.54436e-07
1.77866e-06
-2.01045e-09
1.77293e-06
-1.39827e-07
1.77684e-06
5.00424e-07
1.78188e-06
1.6225e-07
1.79026e-06
1.32287e-07
1.77662e-06
-6.84745e-07
1.77438e-06
-4.90128e-07
1.77587e-06
-2.25146e-08
1.77809e-06
6.16645e-08
1.77769e-06
2.51463e-07
1.78494e-06
3.71765e-07
1.78407e-06
2.08269e-07
1.78218e-06
5.63522e-08
1.77553e-06
-2.73561e-08
1.77491e-06
-2.2593e-08
1.77211e-06
-1.99594e-08
1.76435e-06
-6.38997e-08
1.76542e-06
4.61343e-08
1.57998e-09
1.7473e-06
1.8611e-06
-3.51792e-07
1.86193e-06
-2.83563e-09
1.85543e-06
-1.33326e-07
1.86108e-06
4.94774e-07
1.86763e-06
1.557e-07
1.87663e-06
1.23281e-07
1.86132e-06
-6.69433e-07
1.8562e-06
-4.85003e-07
1.85533e-06
-2.16467e-08
1.85739e-06
5.96068e-08
1.85789e-06
2.50957e-07
1.86686e-06
3.62802e-07
1.86803e-06
2.07097e-07
1.86695e-06
5.7427e-08
1.86146e-06
-2.18636e-08
1.86006e-06
-2.11937e-08
1.85793e-06
-1.7831e-08
1.84917e-06
-5.51365e-08
1.85e-06
4.53043e-08
1.8049e-08
1.83353e-06
1.94972e-06
-3.48674e-07
1.94982e-06
-2.93863e-09
1.94334e-06
-1.26842e-07
1.95075e-06
4.87362e-07
1.95754e-06
1.48908e-07
1.96661e-06
1.1422e-07
1.94976e-06
-6.5259e-07
1.94276e-06
-4.77996e-07
1.94035e-06
-1.92379e-08
1.94248e-06
5.74737e-08
1.94388e-06
2.49552e-07
1.95404e-06
3.5265e-07
1.95683e-06
2.04301e-07
1.95604e-06
5.8222e-08
1.95159e-06
-1.74147e-08
1.94935e-06
-1.8956e-08
1.94771e-06
-1.61898e-08
1.93837e-06
-4.58016e-08
1.9386e-06
4.50834e-08
3.2546e-08
1.9241e-06
2.04241e-06
-3.44898e-07
2.04229e-06
-2.80999e-09
2.03625e-06
-1.20803e-07
2.04538e-06
4.78232e-07
2.0517e-06
1.42583e-07
2.06046e-06
1.0546e-07
2.04222e-06
-6.34349e-07
2.03413e-06
-4.69905e-07
2.03093e-06
-1.60442e-08
2.0334e-06
5.50065e-08
2.03572e-06
2.47232e-07
2.04653e-06
3.4184e-07
2.05057e-06
2.00259e-07
2.04956e-06
5.92335e-08
2.04597e-06
-1.38249e-08
2.04292e-06
-1.59028e-08
2.04146e-06
-1.47296e-08
2.03201e-06
-3.6348e-08
2.03135e-06
4.57411e-08
4.49143e-08
2.01898e-06
2.13954e-06
-3.40438e-07
2.13942e-06
-2.68622e-09
2.13391e-06
-1.15291e-07
2.14465e-06
4.67485e-07
2.15022e-06
1.37016e-07
2.15858e-06
9.71044e-08
2.13908e-06
-6.14853e-07
2.13044e-06
-4.61265e-07
2.127e-06
-1.26014e-08
2.12994e-06
5.20645e-08
2.1332e-06
2.43973e-07
2.1442e-06
3.3084e-07
2.14922e-06
1.95237e-07
2.14764e-06
6.08137e-08
2.1447e-06
-1.08817e-08
2.14096e-06
-1.21708e-08
2.13931e-06
-1.30742e-08
2.13016e-06
-2.71965e-08
2.12852e-06
4.73796e-08
5.52165e-08
2.11822e-06
2.2414e-06
-3.3535e-07
2.24141e-06
-2.6975e-09
2.23628e-06
-1.10157e-07
2.24849e-06
4.55277e-07
2.25326e-06
1.32244e-07
2.26129e-06
8.90679e-08
2.24071e-06
-5.94272e-07
2.23183e-06
-4.52378e-07
2.22844e-06
-9.21197e-09
2.23183e-06
4.86729e-08
2.23604e-06
2.39765e-07
2.24685e-06
3.20028e-07
2.2527e-06
1.89389e-07
2.25039e-06
6.31177e-08
2.24787e-06
-8.35535e-09
2.2437e-06
-8.00799e-09
2.24146e-06
-1.08315e-08
2.23295e-06
-1.86894e-08
2.23042e-06
4.99102e-08
6.37232e-08
2.22192e-06
2.34825e-06
-3.2972e-07
2.34849e-06
-2.94133e-09
2.34348e-06
-1.05151e-07
2.35696e-06
4.41804e-07
2.36101e-06
1.28187e-07
2.36891e-06
8.11739e-08
2.34743e-06
-5.72794e-07
2.33842e-06
-4.43366e-07
2.33522e-06
-6.01217e-09
2.33889e-06
4.49959e-08
2.34405e-06
2.34607e-07
2.3544e-06
3.09675e-07
2.36099e-06
1.82803e-07
2.358e-06
6.61033e-08
2.35565e-06
-5.99965e-09
2.35137e-06
-3.73162e-09
2.3482e-06
-7.65922e-09
2.34056e-06
-1.10454e-08
2.33736e-06
5.31052e-08
7.08171e-08
2.33027e-06
2.4603e-06
-3.23623e-07
2.46086e-06
-3.50261e-09
2.45574e-06
-1.00026e-07
2.47027e-06
4.27265e-07
2.47372e-06
1.24736e-07
2.48166e-06
7.32437e-08
2.45948e-06
-5.50619e-07
2.45035e-06
-4.34233e-07
2.44739e-06
-3.05762e-09
2.45112e-06
4.1271e-08
2.45721e-06
2.2851e-07
2.46693e-06
2.99955e-07
2.47418e-06
1.75562e-07
2.47071e-06
6.95656e-08
2.46826e-06
-3.54429e-09
2.46419e-06
3.3183e-10
2.45993e-06
-3.39839e-09
2.45313e-06
-4.24236e-09
2.4496e-06
5.66339e-08
7.68987e-08
2.44352e-06
2.57778e-06
-3.17112e-07
2.57873e-06
-4.45122e-09
2.57331e-06
-9.45994e-08
2.58874e-06
4.11831e-07
2.59167e-06
1.21802e-07
2.59976e-06
6.51559e-08
2.57709e-06
-5.27953e-07
2.56777e-06
-4.24911e-07
2.5651e-06
-3.89011e-10
2.56863e-06
3.77436e-08
2.57565e-06
2.21493e-07
2.58466e-06
2.90944e-07
2.59243e-06
1.6779e-07
2.5888e-06
7.31995e-08
2.58596e-06
-7.06615e-10
2.58238e-06
3.91557e-09
2.57709e-06
1.88883e-09
2.57085e-06
1.99504e-09
2.5674e-06
6.0086e-08
8.23154e-08
2.56198e-06
2.70094e-06
-3.10219e-07
2.70232e-06
-5.83679e-09
2.69648e-06
-8.87636e-08
2.71268e-06
3.95639e-07
2.71517e-06
1.19313e-07
2.72345e-06
5.68696e-08
2.7005e-06
-5.04997e-07
2.69088e-06
-4.15297e-07
2.68856e-06
1.93695e-09
2.69168e-06
3.46205e-08
2.69959e-06
2.13584e-07
2.7079e-06
2.82628e-07
2.71602e-06
1.59679e-07
2.71256e-06
7.66516e-08
2.70907e-06
2.7832e-09
2.70612e-06
6.87001e-09
2.70003e-06
7.97715e-09
2.69398e-06
8.04153e-09
2.69098e-06
6.30943e-08
8.72806e-08
2.68601e-06
2.83001e-06
-3.02959e-07
2.83186e-06
-7.68766e-09
2.82557e-06
-8.24767e-08
2.84242e-06
3.78795e-07
2.84453e-06
1.17204e-07
2.85297e-06
4.84208e-08
2.82993e-06
-4.81949e-07
2.8199e-06
-4.05269e-07
2.81799e-06
3.84337e-09
2.82057e-06
3.20462e-08
2.82931e-06
2.0484e-07
2.83703e-06
2.74911e-07
2.84523e-06
1.51474e-07
2.84229e-06
7.95921e-08
2.83795e-06
7.12591e-09
2.83561e-06
9.20818e-09
2.82907e-06
1.45122e-08
2.82286e-06
1.4253e-08
2.82052e-06
6.5441e-08
9.18301e-08
2.81597e-06
2.96528e-06
-2.95343e-07
2.96761e-06
-1.00134e-08
2.96087e-06
-7.57442e-08
2.97828e-06
3.61391e-07
2.98008e-06
1.15406e-07
2.98859e-06
3.99054e-08
2.96564e-06
-4.59001e-07
2.95508e-06
-3.94709e-07
2.95367e-06
5.25379e-09
2.95563e-06
3.00935e-08
2.96511e-06
1.95361e-07
2.97239e-06
2.6763e-07
2.98041e-06
1.43454e-07
2.97824e-06
8.17594e-08
2.97296e-06
1.24057e-08
2.97107e-06
1.11011e-08
2.96448e-06
2.10961e-08
2.95788e-06
2.08558e-08
2.9562e-06
6.71177e-08
9.58362e-08
2.9522e-06
3.10705e-06
-2.87382e-07
3.10984e-06
-1.28081e-08
3.1027e-06
-6.86064e-08
3.12057e-06
3.43524e-07
3.12214e-06
1.1383e-07
3.13059e-06
3.14602e-08
3.10793e-06
-4.36346e-07
3.09674e-06
-3.83516e-07
3.09588e-06
6.11377e-09
3.09721e-06
2.87618e-08
3.10727e-06
1.853e-07
3.11433e-06
2.60578e-07
3.12189e-06
1.3589e-07
3.12066e-06
8.2991e-08
3.1145e-06
1.85629e-08
3.11276e-06
1.28472e-08
3.10648e-06
2.73687e-08
3.09945e-06
2.78927e-08
3.09825e-06
6.83093e-08
9.90814e-08
3.09501e-06
3.25562e-06
-2.79088e-07
3.25886e-06
-1.60521e-08
3.25138e-06
-6.11316e-08
3.2696e-06
3.25305e-07
3.27106e-06
1.12374e-07
3.27928e-06
2.32432e-08
3.25709e-06
-4.1416e-07
3.2452e-06
-3.71621e-07
3.24489e-06
6.41427e-09
3.24568e-06
2.79791e-08
3.25613e-06
1.74848e-07
3.26316e-06
2.53551e-07
3.27005e-06
1.29e-07
3.26979e-06
8.32434e-08
3.26292e-06
2.54314e-08
3.26101e-06
1.47668e-08
3.2553e-06
3.30777e-08
3.24794e-06
3.52471e-08
3.24694e-06
6.93078e-08
1.01356e-07
3.24467e-06
3.41132e-06
-2.70477e-07
3.41498e-06
-1.97125e-08
3.40726e-06
-5.34154e-08
3.4257e-06
3.06871e-07
3.42715e-06
1.1092e-07
3.43498e-06
1.542e-08
3.41342e-06
-3.92599e-07
3.4008e-06
-3.59008e-07
3.40101e-06
6.20347e-09
3.40138e-06
2.76167e-08
3.412e-06
1.64222e-07
3.41918e-06
2.46372e-07
3.42525e-06
1.22935e-07
3.4259e-06
8.25851e-08
3.41857e-06
3.27708e-08
3.41618e-06
1.71526e-08
3.41118e-06
3.80741e-08
3.40372e-06
4.27106e-08
3.40261e-06
7.04156e-08
1.02539e-07
3.40143e-06
3.5745e-06
-2.61571e-07
3.57854e-06
-2.37435e-08
3.5707e-06
-4.55801e-08
3.58919e-06
2.88382e-07
3.59077e-06
1.09341e-07
3.59805e-06
8.14161e-09
3.57722e-06
-3.71774e-07
3.56394e-06
-3.45721e-07
3.56456e-06
5.57815e-09
3.56465e-06
2.75254e-08
3.57526e-06
1.53615e-07
3.5827e-06
2.38934e-07
3.58788e-06
1.17756e-07
3.58929e-06
8.11677e-08
3.58173e-06
4.03389e-08
3.57867e-06
2.02072e-08
3.57444e-06
4.23002e-08
3.56711e-06
5.00417e-08
3.56565e-06
7.188e-08
1.02639e-07
3.56555e-06
3.74553e-06
-2.52395e-07
3.74987e-06
-2.80831e-08
3.74206e-06
-3.77741e-08
3.76043e-06
2.70015e-07
3.76226e-06
1.07514e-07
3.76887e-06
1.52697e-09
3.74884e-06
-3.5174e-07
3.73498e-06
-3.31865e-07
3.73589e-06
4.66925e-09
3.73585e-06
2.75598e-08
3.74629e-06
1.43181e-07
3.75401e-06
2.31211e-07
3.75832e-06
1.13452e-07
3.76029e-06
7.91996e-08
3.75272e-06
4.79008e-08
3.74886e-06
2.40673e-08
3.74542e-06
4.57399e-08
3.73846e-06
5.70035e-08
3.73647e-06
7.38695e-08
1.01804e-07
3.73731e-06
3.92477e-06
-2.4298e-07
3.92934e-06
-3.26542e-08
3.92174e-06
-3.01677e-08
3.93979e-06
2.5196e-07
3.94196e-06
1.05344e-07
3.94785e-06
-4.35983e-09
3.9286e-06
-3.32486e-07
3.91433e-06
-3.17596e-07
3.91538e-06
3.61285e-09
3.91532e-06
2.76188e-08
3.9255e-06
1.33003e-07
3.93346e-06
2.23253e-07
3.93694e-06
1.09973e-07
3.93926e-06
7.68815e-08
3.93187e-06
5.52887e-08
3.92716e-06
2.87796e-08
3.92447e-06
4.84237e-08
3.91812e-06
6.33531e-08
3.91552e-06
7.64701e-08
1.00319e-07
3.91701e-06
4.11263e-06
-2.33362e-07
4.11734e-06
-3.73593e-08
4.11012e-06
-2.29485e-08
4.12768e-06
2.34401e-07
4.13025e-06
1.02775e-07
4.13541e-06
-9.526e-09
4.11687e-06
-3.1394e-07
4.10237e-06
-3.03096e-07
4.10346e-06
2.51944e-09
4.1034e-06
2.76758e-08
4.11332e-06
1.23083e-07
4.12141e-06
2.15167e-07
4.1241e-06
1.07281e-07
4.1266e-06
7.43779e-08
4.11953e-06
6.23649e-08
4.114e-06
3.43058e-08
4.11194e-06
5.04842e-08
4.10646e-06
6.88313e-08
4.10328e-06
7.96544e-08
9.85973e-08
4.105e-06
4.30952e-06
-2.23583e-07
4.31425e-06
-4.20839e-08
4.30761e-06
-1.63069e-08
4.32452e-06
2.17491e-07
4.32749e-06
9.98052e-08
4.33201e-06
-1.40545e-08
4.31404e-06
-2.95967e-07
4.2995e-06
-2.88556e-07
4.30056e-06
1.45717e-09
4.30046e-06
2.77759e-08
4.31015e-06
1.13399e-07
4.31828e-06
2.07041e-07
4.32015e-06
1.05402e-07
4.32269e-06
7.18376e-08
4.31613e-06
6.89302e-08
4.30988e-06
4.05524e-08
4.30822e-06
5.21471e-08
4.30383e-06
7.32224e-08
4.30024e-06
8.32386e-08
9.71204e-08
4.30172e-06
4.51588e-06
-2.13687e-07
4.52049e-06
-4.66971e-08
4.5146e-06
-1.04182e-08
4.53076e-06
2.0133e-07
4.53408e-06
9.64882e-08
4.5381e-06
-1.80744e-08
4.52055e-06
-2.78415e-07
4.50612e-06
-2.74132e-07
4.50716e-06
4.2072e-10
4.50694e-06
2.80004e-08
4.51635e-06
1.03985e-07
4.52449e-06
1.98898e-07
4.52546e-06
1.04429e-07
4.5279e-06
6.94067e-08
4.52209e-06
7.47351e-08
4.5153e-06
4.73382e-08
4.51377e-06
5.36787e-08
4.51055e-06
7.64432e-08
4.50691e-06
8.68836e-08
9.63041e-08
4.50772e-06
4.73215e-06
-2.03719e-07
4.73651e-06
-5.10561e-08
4.73151e-06
-5.4217e-09
4.74692e-06
1.85922e-07
4.75045e-06
9.29584e-08
4.75413e-06
-2.17536e-08
4.73686e-06
-2.61146e-07
4.72262e-06
-2.59896e-07
4.72371e-06
-6.68052e-10
4.72327e-06
2.84412e-08
4.7323e-06
9.49599e-08
4.74049e-06
1.90705e-07
4.7405e-06
1.04419e-07
4.74261e-06
6.72929e-08
4.73785e-06
7.94977e-08
4.73077e-06
5.44165e-08
4.72913e-06
5.53233e-08
4.727e-06
7.85724e-08
4.72368e-06
9.01983e-08
9.6325e-08
4.72366e-06
4.9588e-06
-1.93725e-07
4.96277e-06
-5.5022e-08
4.95874e-06
-1.39068e-09
4.97351e-06
1.71154e-07
4.97705e-06
8.94129e-08
4.98054e-06
-2.52395e-08
4.96351e-06
-2.4412e-07
4.94941e-06
-2.4579e-07
4.95068e-06
-1.93733e-09
4.94996e-06
2.91619e-08
4.95839e-06
8.65237e-08
4.96665e-06
1.82446e-07
4.9658e-06
1.05273e-07
4.96742e-06
6.56726e-08
4.96386e-06
8.30553e-08
4.95676e-06
6.15143e-08
4.95484e-06
5.72403e-08
4.9536e-06
7.98123e-08
4.95092e-06
9.28811e-08
9.70532e-08
4.95019e-06
5.19634e-06
-1.83745e-07
5.1998e-06
-5.84827e-08
5.19672e-06
1.68804e-09
5.21107e-06
1.56803e-07
5.21443e-06
8.60538e-08
5.21775e-06
-2.85647e-08
5.20109e-06
-2.2746e-07
5.18693e-06
-2.3163e-07
5.18848e-06
-3.47969e-09
5.18752e-06
3.01213e-08
5.1951e-06
7.89385e-08
5.20339e-06
1.74156e-07
5.20191e-06
1.06757e-07
5.20297e-06
6.46094e-08
5.20061e-06
8.5418e-08
5.19374e-06
6.83779e-08
5.19148e-06
5.95013e-08
5.19092e-06
8.03782e-08
5.18897e-06
9.48235e-08
9.81583e-08
5.18787e-06
5.44526e-06
-1.73811e-07
5.44817e-06
-6.13927e-08
5.44592e-06
3.93707e-09
5.46016e-06
1.4256e-07
5.46313e-06
8.30796e-08
5.46621e-06
-3.16382e-08
5.45019e-06
-2.11446e-07
5.43569e-06
-2.17129e-07
5.43753e-06
-5.32023e-09
5.43648e-06
3.1171e-08
5.44299e-06
7.24327e-08
5.45125e-06
1.65897e-07
5.44948e-06
1.08526e-07
5.44992e-06
6.4168e-08
5.44864e-06
8.66937e-08
5.4422e-06
7.48262e-08
5.43956e-06
6.21344e-08
5.43952e-06
8.0423e-08
5.43828e-06
9.60583e-08
9.92995e-08
5.43714e-06
5.70609e-06
-1.63948e-07
5.70847e-06
-6.37711e-08
5.70685e-06
5.56261e-09
5.7213e-06
1.28106e-07
5.72379e-06
8.05946e-08
5.72638e-06
-3.42334e-08
5.71135e-06
-1.96417e-07
5.69627e-06
-2.02045e-07
5.69826e-06
-7.31409e-09
5.69734e-06
3.20894e-08
5.70265e-06
6.71244e-08
5.71082e-06
1.57724e-07
5.70909e-06
1.10263e-07
5.7089e-06
6.43575e-08
5.70854e-06
8.70527e-08
5.70266e-06
8.07023e-08
5.69961e-06
6.51833e-08
5.69998e-06
8.0057e-08
5.69941e-06
9.66298e-08
1.0027e-07
5.69844e-06
5.97941e-06
-1.54167e-07
5.98134e-06
-6.5695e-08
5.98006e-06
6.8337e-09
5.99498e-06
1.13191e-07
5.99703e-06
7.85401e-08
5.9988e-06
-3.6003e-08
5.98508e-06
-1.82692e-07
5.96934e-06
-1.86306e-07
5.97109e-06
-9.06048e-09
5.97057e-06
3.26051e-08
5.97469e-06
6.30008e-08
5.98266e-06
1.49759e-07
5.98123e-06
1.11695e-07
5.98049e-06
6.50905e-08
5.98089e-06
8.6657e-08
5.97571e-06
8.58781e-08
5.97221e-06
6.86848e-08
5.97285e-06
7.94226e-08
5.97296e-06
9.65141e-08
1.00986e-07
5.97225e-06
6.26579e-06
-1.44468e-07
6.26738e-06
-6.72896e-08
6.26617e-06
8.04861e-09
6.28163e-06
9.77291e-08
6.28353e-06
7.66417e-08
6.28408e-06
-3.6552e-08
6.27185e-06
-1.70464e-07
6.25561e-06
-1.70068e-07
6.25655e-06
-9.99671e-09
6.25659e-06
3.25659e-08
6.25973e-06
5.98598e-08
6.26736e-06
1.42132e-07
6.2664e-06
1.12652e-07
6.26529e-06
6.62026e-08
6.26629e-06
8.56585e-08
6.26193e-06
9.02348e-08
6.25801e-06
7.26041e-08
6.25868e-06
7.8754e-08
6.25953e-06
9.5659e-08
1.01371e-07
6.25915e-06
6.56585e-06
-1.34849e-07
6.56726e-06
-6.86955e-08
6.56585e-06
9.45675e-09
6.58173e-06
8.18494e-08
6.58398e-06
7.43898e-08
6.58293e-06
-3.55051e-08
6.57215e-06
-1.5968e-07
6.55584e-06
-1.5376e-07
6.55535e-06
-9.50917e-09
6.55591e-06
3.20072e-08
6.55855e-06
5.72201e-08
6.56569e-06
1.34989e-07
6.5652e-06
1.13147e-07
6.56386e-06
6.75401e-08
6.56533e-06
8.41912e-08
6.56192e-06
9.36471e-08
6.5577e-06
7.68203e-08
6.55813e-06
7.83277e-08
6.55969e-06
9.40945e-08
1.01291e-07
6.55977e-06
6.88024e-06
-1.25296e-07
6.8816e-06
-7.00525e-08
6.87981e-06
1.12385e-08
6.89585e-06
6.58123e-08
6.89906e-06
7.11756e-08
6.89617e-06
-3.2614e-08
6.88648e-06
-1.49983e-07
6.87073e-06
-1.38009e-07
6.86846e-06
-7.23889e-09
6.86925e-06
3.12137e-08
6.87197e-06
5.45015e-08
6.87856e-06
1.28397e-07
6.87831e-06
1.13397e-07
6.87681e-06
6.90387e-08
6.87865e-06
8.23554e-08
6.87628e-06
9.60095e-08
6.87196e-06
8.11407e-08
6.87193e-06
7.83609e-08
6.87403e-06
9.19987e-08
1.00583e-07
6.87473e-06
7.20964e-06
-1.15804e-07
7.21105e-06
-7.14586e-08
7.20884e-06
1.34509e-08
7.22463e-06
5.00185e-08
7.22948e-06
6.63237e-08
7.22463e-06
-2.77594e-08
7.21549e-06
-1.40848e-07
7.20082e-06
-1.23337e-07
7.19687e-06
-3.28315e-09
7.19738e-06
3.07025e-08
7.20047e-06
5.14134e-08
7.20675e-06
1.22113e-07
7.20651e-06
1.13632e-07
7.2048e-06
7.07497e-08
7.2069e-06
8.02598e-08
7.20566e-06
9.72519e-08
7.20148e-06
8.53169e-08
7.20087e-06
7.89694e-08
7.20323e-06
8.96406e-08
9.91651e-08
7.20465e-06
7.55479e-06
-1.06368e-07
7.5563e-06
-7.29682e-08
7.55369e-06
1.60575e-08
7.56877e-06
3.49364e-08
7.5757e-06
5.94023e-08
7.56911e-06
-2.11775e-08
7.55991e-06
-1.31641e-07
7.54668e-06
-1.10107e-07
7.54156e-06
1.83234e-09
7.54116e-06
3.11085e-08
7.54457e-06
4.79944e-08
7.55091e-06
1.15778e-07
7.55065e-06
1.13889e-07
7.5486e-06
7.28076e-08
7.55077e-06
7.80842e-08
7.5507e-06
9.73261e-08
7.54693e-06
8.90865e-08
7.54574e-06
8.01596e-08
7.54808e-06
8.72969e-08
9.7067e-08
7.55018e-06
7.91644e-06
-9.69927e-08
7.91807e-06
-7.45997e-08
7.91519e-06
1.89384e-08
7.92902e-06
2.11001e-08
7.93801e-06
5.04124e-08
7.93038e-06
-1.35468e-08
7.9205e-06
-1.21755e-07
7.90896e-06
-9.85705e-08
7.90321e-06
7.58643e-09
7.90155e-06
3.27647e-08
7.90497e-06
4.4577e-08
7.91161e-06
1.09138e-07
7.91156e-06
1.13935e-07
7.90901e-06
7.53573e-08
7.91106e-06
7.60369e-08
7.91209e-06
9.62909e-08
7.909e-06
9.21778e-08
7.90732e-06
8.1842e-08
7.9094e-06
8.52165e-08
9.44004e-08
7.91207e-06
8.29539e-06
-8.77023e-08
8.29713e-06
-7.63347e-08
8.29423e-06
2.18344e-08
8.30614e-06
9.19204e-09
8.31703e-06
3.95251e-08
8.30914e-06
-5.66142e-09
8.29812e-06
-1.1073e-07
8.28827e-06
-8.87266e-08
8.28249e-06
1.337e-08
8.27949e-06
3.57674e-08
8.2824e-06
4.16641e-08
8.28951e-06
1.02024e-07
8.28994e-06
1.13508e-07
8.28696e-06
7.83388e-08
8.2886e-06
7.43991e-08
8.29057e-06
9.43185e-08
8.28841e-06
9.43347e-08
8.28643e-06
8.38255e-08
8.28804e-06
8.36016e-08
9.13383e-08
8.29111e-06
8.6925e-06
-7.85447e-08
8.69428e-06
-7.81136e-08
8.69171e-06
2.44083e-08
8.70096e-06
-5.56437e-11
8.71352e-06
2.69586e-08
8.70609e-06
1.77339e-09
8.69368e-06
-9.83234e-08
8.68527e-06
-8.03108e-08
8.68009e-06
1.85484e-08
8.67593e-06
3.99294e-08
8.67782e-06
3.97745e-08
8.68529e-06
9.45477e-08
8.68654e-06
1.12255e-07
8.68333e-06
8.15565e-08
8.68429e-06
7.34302e-08
8.68693e-06
9.16798e-08
8.68588e-06
9.53864e-08
8.68388e-06
8.58256e-08
8.68492e-06
8.2568e-08
8.81188e-08
8.68813e-06
9.10866e-06
-6.95866e-08
9.11038e-06
-7.98317e-08
9.10849e-06
2.63016e-08
9.11458e-06
-6.1453e-09
9.12832e-06
1.32122e-08
9.12209e-06
8.00479e-09
9.10813e-06
-8.43629e-08
9.10066e-06
-7.28395e-08
9.09667e-06
2.25355e-08
9.09179e-06
4.48069e-08
9.09225e-06
3.93159e-08
9.09977e-06
8.70339e-08
9.10211e-06
1.09908e-07
9.09893e-06
8.47418e-08
9.09916e-06
7.31979e-08
9.10209e-06
8.8747e-08
9.10217e-06
9.53145e-08
9.10048e-06
8.75122e-08
9.10095e-06
8.20948e-08
8.50314e-08
9.10404e-06
9.54479e-06
-6.0919e-08
9.54632e-06
-8.13554e-08
9.5454e-06
2.72132e-08
9.54819e-06
-8.9348e-09
9.56229e-06
-8.8213e-10
9.55807e-06
1.22196e-08
9.54255e-06
-6.88391e-08
9.53532e-06
-6.56133e-08
9.53297e-06
2.48928e-08
9.52794e-06
4.98324e-08
9.52685e-06
4.04019e-08
9.53393e-06
7.9955e-08
9.53735e-06
1.06491e-07
9.53464e-06
8.74526e-08
9.53415e-06
7.36881e-08
9.53705e-06
8.58439e-08
9.53811e-06
9.42536e-08
9.53701e-06
8.86175e-08
9.53711e-06
8.19929e-08
8.23489e-08
9.53979e-06
1.00019e-05
-5.26573e-08
1.0003e-05
-8.24875e-08
1.00034e-05
2.68637e-08
1.0003e-05
-8.57237e-09
1.00163e-05
-1.4233e-08
1.00149e-05
1.36685e-08
9.99835e-06
-5.22906e-08
9.9904e-06
-5.76692e-08
9.98973e-06
2.55615e-08
9.98524e-06
5.43293e-08
9.98278e-06
4.28589e-08
9.98882e-06
7.39172e-08
9.99317e-06
1.02134e-07
9.99127e-06
8.93583e-08
9.99024e-06
7.47123e-08
9.99286e-06
8.32235e-08
9.9947e-06
9.24207e-08
9.9943e-06
8.90193e-08
9.99431e-06
8.19771e-08
8.02126e-08
9.99645e-06
1.04809e-05
-4.4934e-08
1.04814e-05
-8.29682e-08
1.04833e-05
2.49969e-08
1.04802e-05
-5.50944e-09
1.04915e-05
-2.55811e-08
1.04933e-05
1.19013e-08
1.04767e-05
-3.57012e-08
1.04672e-05
-4.81652e-08
1.04678e-05
2.49725e-08
1.04645e-05
5.76059e-08
1.0461e-05
4.63553e-08
1.04656e-05
6.93204e-08
1.04706e-05
9.71571e-08
1.04696e-05
9.03387e-08
1.04684e-05
7.59266e-08
1.04706e-05
8.10409e-08
1.0473e-05
9.00482e-08
1.04733e-05
8.87102e-08
1.04735e-05
8.18038e-08
7.85739e-08
1.04751e-05
1.0983e-05
-3.78921e-08
1.09825e-05
-8.24507e-08
1.09861e-05
2.13872e-08
1.09811e-05
-5.07557e-10
1.09891e-05
-3.36077e-08
1.0994e-05
6.99668e-09
1.09787e-05
-2.04337e-08
1.09673e-05
-3.6685e-08
1.09682e-05
2.39846e-08
1.09666e-05
5.92787e-08
1.09627e-05
5.02597e-08
1.09657e-05
6.62689e-08
1.09707e-05
9.21517e-08
1.09708e-05
9.02921e-08
1.09696e-05
7.70956e-08
1.09714e-05
7.92748e-08
1.0974e-05
8.73658e-08
1.0975e-05
8.77386e-08
1.09755e-05
8.13316e-08
7.72452e-08
1.09768e-05
1.15091e-05
-3.16636e-08
1.15073e-05
-8.06007e-08
1.15127e-05
1.60172e-08
1.15068e-05
5.39498e-09
1.15105e-05
-3.735e-08
1.15179e-05
-3.67822e-10
1.15053e-05
-7.84799e-09
1.1492e-05
-2.34437e-08
1.14922e-05
2.3795e-08
1.14922e-05
5.93501e-08
1.14886e-05
5.37664e-08
1.14902e-05
6.46998e-08
1.14948e-05
8.75394e-08
1.14957e-05
8.93974e-08
1.14948e-05
7.79987e-08
1.14962e-05
7.78517e-08
1.14991e-05
8.45441e-08
1.15006e-05
8.6197e-08
1.15014e-05
8.05107e-08
7.60041e-08
1.15027e-05
1.20605e-05
-2.63455e-08
1.20571e-05
-7.72235e-08
1.20639e-05
9.22995e-09
1.20582e-05
1.1068e-08
1.20576e-05
-3.67005e-08
1.20658e-05
-8.58762e-09
1.20571e-05
8.15419e-10
1.20429e-05
-9.2293e-09
1.20413e-05
2.54551e-08
1.20424e-05
5.82464e-08
1.20398e-05
5.63597e-08
1.20403e-05
6.41635e-08
1.20443e-05
8.35838e-08
1.20457e-05
8.79932e-08
1.20452e-05
7.8494e-08
1.20463e-05
7.66935e-08
1.20492e-05
8.16711e-08
1.20512e-05
8.41823e-08
1.20524e-05
7.93392e-08
7.4666e-08
1.20537e-05
1.26382e-05
-2.19811e-08
1.26333e-05
-7.23122e-08
1.26409e-05
1.67213e-09
1.26364e-05
1.5509e-08
1.26319e-05
-3.21955e-08
1.2639e-05
-1.56977e-08
1.26349e-05
4.97515e-09
1.26211e-05
4.56674e-09
1.26171e-05
2.94413e-08
1.26184e-05
5.69209e-08
1.2617e-05
5.77885e-08
1.26172e-05
6.39575e-08
1.26203e-05
8.04342e-08
1.2622e-05
8.62977e-08
1.26219e-05
7.86518e-08
1.26229e-05
7.57117e-08
1.26257e-05
7.885e-08
1.26281e-05
8.17571e-08
1.26296e-05
7.78591e-08
7.31232e-08
1.26311e-05
1.32435e-05
-1.85586e-08
1.32373e-05
-6.60955e-08
1.32448e-05
-5.8094e-09
1.32422e-05
1.80741e-08
1.32349e-05
-2.48895e-08
1.32392e-05
-2.00074e-08
1.32391e-05
5.09402e-09
1.32274e-05
1.62743e-08
1.32213e-05
3.55515e-08
1.32218e-05
5.6438e-08
1.32214e-05
5.81394e-08
1.32218e-05
6.36059e-08
1.32244e-05
7.78192e-08
1.32261e-05
8.45493e-08
1.32263e-05
7.85059e-08
1.32271e-05
7.48599e-08
1.32298e-05
7.62109e-08
1.32326e-05
7.89547e-08
1.32343e-05
7.61091e-08
7.13542e-08
1.32361e-05
1.38776e-05
-1.60057e-08
1.38704e-05
-5.89006e-08
1.38771e-05
-1.24548e-08
1.38765e-05
1.86025e-08
1.38677e-05
-1.60243e-08
1.38682e-05
-2.05058e-08
1.38707e-05
2.58032e-09
1.38625e-05
2.44736e-08
1.38552e-05
4.28158e-08
1.38542e-05
5.74167e-08
1.38543e-05
5.80669e-08
1.38551e-05
6.28215e-08
1.38576e-05
7.53161e-08
1.38593e-05
8.28373e-08
1.38597e-05
7.81172e-08
1.38605e-05
7.41016e-08
1.38628e-05
7.38641e-08
1.38659e-05
7.58982e-08
1.38679e-05
7.40514e-08
6.94326e-08
1.38698e-05
1.45419e-05
-1.41924e-08
1.45339e-05
-5.09931e-08
1.45392e-05
-1.7717e-08
1.45404e-05
1.73732e-08
1.45313e-05
-6.88522e-09
1.4528e-05
-1.72474e-08
1.4531e-05
-4.19617e-10
1.45271e-05
2.84238e-08
1.45202e-05
4.97088e-08
1.45176e-05
6.00366e-08
1.45172e-05
5.84057e-08
1.45185e-05
6.16067e-08
1.45211e-05
7.26459e-08
1.4523e-05
8.09333e-08
1.45236e-05
7.75899e-08
1.45243e-05
7.33386e-08
1.45263e-05
7.18618e-08
1.45294e-05
7.28145e-08
1.45318e-05
7.16052e-08
6.74667e-08
1.45338e-05
1.52376e-05
-1.29273e-08
1.52294e-05
-4.27748e-08
1.52327e-05
-2.10259e-08
1.52354e-05
1.47264e-08
1.5227e-05
1.46346e-09
1.52207e-05
-1.09175e-08
1.52222e-05
-1.93256e-09
1.52222e-05
2.84395e-08
1.52172e-05
5.46559e-08
1.52133e-05
6.39269e-08
1.52121e-05
5.96327e-08
1.52133e-05
6.04479e-08
1.52162e-05
6.97388e-08
1.52186e-05
7.85291e-08
1.52193e-05
7.69127e-08
1.52201e-05
7.25018e-08
1.52218e-05
7.01439e-08
1.52247e-05
6.99392e-08
1.52275e-05
6.87875e-08
6.54309e-08
1.52295e-05
1.59664e-05
-1.19713e-08
1.59583e-05
-3.47202e-08
1.59593e-05
-2.20068e-08
1.59629e-05
1.11205e-08
1.59562e-05
8.21469e-09
1.59479e-05
-2.68507e-09
1.59468e-05
-8.53792e-10
1.59491e-05
2.61882e-08
1.59471e-05
5.66493e-08
1.5943e-05
6.80157e-08
1.59407e-05
6.19321e-08
1.59413e-05
5.98989e-08
1.59443e-05
6.67336e-08
1.59472e-05
7.55768e-08
1.59484e-05
7.57622e-08
1.59492e-05
7.16882e-08
1.59508e-05
6.84979e-08
1.59533e-05
6.74226e-08
1.59563e-05
6.57907e-08
6.31684e-08
1.59586e-05
1.67297e-05
-1.1087e-08
1.67223e-05
-2.72868e-08
1.67209e-05
-2.06673e-08
1.67247e-05
7.38266e-09
1.67201e-05
1.28438e-08
1.67112e-05
6.11883e-09
1.67074e-05
2.95833e-09
1.67099e-05
2.37541e-08
1.67109e-05
5.56578e-08
1.67079e-05
7.09554e-08
1.67047e-05
6.5159e-08
1.67044e-05
6.0229e-08
1.67071e-05
6.40464e-08
1.67104e-05
7.22282e-08
1.67123e-05
7.38741e-08
1.67132e-05
7.07783e-08
1.67148e-05
6.68964e-08
1.67171e-05
6.51655e-08
1.672e-05
6.28739e-08
6.05932e-08
1.67226e-05
1.75294e-05
-1.01049e-08
1.7523e-05
-2.09111e-08
1.75198e-05
-1.743e-08
1.75226e-05
4.51403e-09
1.752e-05
1.54889e-08
1.75119e-05
1.42089e-08
1.75059e-05
8.9756e-09
1.75069e-05
2.26986e-08
1.75101e-05
5.24958e-08
1.75091e-05
7.1943e-08
1.75057e-05
6.85655e-08
1.75044e-05
6.14866e-08
1.75064e-05
6.21179e-08
1.75099e-05
6.87201e-08
1.75124e-05
7.13374e-08
1.75138e-05
6.94122e-08
1.75153e-05
6.53903e-08
1.75175e-05
6.30029e-08
1.75201e-05
6.01811e-08
5.78255e-08
1.75229e-05
1.83672e-05
-8.92211e-09
1.8362e-05
-1.57164e-08
1.83575e-05
-1.29291e-08
1.83589e-05
3.10483e-09
1.83578e-05
1.66018e-08
1.8351e-05
2.09481e-08
1.83439e-05
1.61259e-08
1.83428e-05
2.37595e-08
1.83467e-05
4.85706e-08
1.83478e-05
7.08529e-08
1.83453e-05
7.11389e-08
1.83432e-05
6.35164e-08
1.83442e-05
6.11316e-08
1.83475e-05
6.54164e-08
1.83505e-05
6.83825e-08
1.83524e-05
6.74494e-08
1.83541e-05
6.37417e-08
1.83561e-05
6.09454e-08
1.83586e-05
5.77126e-08
5.50055e-08
1.83614e-05
1.9245e-05
-7.50065e-09
1.92408e-05
-1.15815e-08
1.92357e-05
-7.81163e-09
1.92355e-05
3.30976e-09
1.92352e-05
1.69033e-08
1.92301e-05