/*--------------------------------*- C++ -*----------------------------------*\
| =========                 |                                                 |
| \\      /  F ield         | OpenFOAM: The Open Source CFD Toolbox           |
|  \\    /   O peration     | Version:  2506                                  |
|   \\  /    A nd           | Website:  www.openfoam.com                      |
|    \\/     M anipulation  |                                                 |
\*---------------------------------------------------------------------------*/
FoamFile
{
    version     2.0;
    format      ascii;
    arch        "LSB;label=32;scalar=64";
    class       volScalarField;
    location    "3.75";
    object      p;
}
// * * * * * * * * * * * * * * * * * * * * * * * * * * * * * * * * * * * * * //

dimensions      [0 2 -2 0 0 0 0];

internalField   nonuniform List<scalar> 
9600
(
-1.22132e-10
0.000857833
0.00101425
0.000991244
0.000858944
-0.000419256
-0.000549836
0.0022112
0.00213143
0.00545695
0.00689711
0.00622563
0.00642105
0.00794491
0.00889019
0.00961943
0.0104309
0.012477
0.0142165
0.0192124
-3.45194e-07
0.000878323
0.00101089
0.000969807
0.000855247
-0.000403263
-0.000540259
0.00220912
0.00213175
0.00544774
0.00688918
0.00621767
0.00642765
0.00794289
0.00889643
0.00961765
0.010443
0.0124576
0.0142357
0.0188347
1.616e-06
0.000897341
0.00100039
0.000948707
0.000856582
-0.000385279
-0.00052719
0.00220188
0.00213063
0.0054339
0.00687989
0.00621799
0.00643527
0.0079383
0.00890656
0.0096155
0.0104571
0.0124276
0.0142365
0.0183621
6.23699e-06
0.000912492
0.000988702
0.000945526
0.000855835
-0.000362806
-0.000501745
0.00219214
0.00213041
0.00542518
0.00686987
0.0062251
0.00644023
0.00793201
0.00891876
0.00961074
0.0104713
0.0123871
0.0142176
0.017912
1.37974e-05
0.000924434
0.00097949
0.000957759
0.000849903
-0.000335044
-0.000460699
0.00218201
0.00213259
0.00541953
0.00685703
0.00623413
0.00644414
0.0079241
0.00893277
0.00960262
0.010485
0.0123403
0.0141783
0.0174891
2.43674e-05
0.000933875
0.00097417
0.000980688
0.000838354
-0.000301118
-0.000403773
0.00217427
0.00213655
0.00541353
0.00684279
0.00624354
0.00644899
0.0079146
0.00894855
0.00959125
0.0104978
0.0122884
0.0141191
0.0170903
3.74157e-05
0.000941835
0.00097403
0.00101175
0.000823098
-0.000261226
-0.000333317
0.00217125
0.00214188
0.00540717
0.00682945
0.00625265
0.00645602
0.00790367
0.00896577
0.00957741
0.0105083
0.0122327
0.014039
0.0167142
5.21611e-05
0.000949899
0.000979683
0.00104928
0.000806881
-0.000216353
-0.000251869
0.00217421
0.00214888
0.00540127
0.00681802
0.00626096
0.00646564
0.00789128
0.00898404
0.00956197
0.010514
0.0121741
0.0139375
0.0163584
6.8011e-05
0.000959409
0.000990569
0.0010921
0.000791943
-0.000167694
-0.000161278
0.0021831
0.00215794
0.00539597
0.00680857
0.00626778
0.00647744
0.00787739
0.00900283
0.00954562
0.0105129
0.0121137
0.0138157
0.0160187
8.46676e-05
0.000970967
0.00100553
0.00113918
0.000779339
-0.000116367
-6.30342e-05
0.00219684
0.00216946
0.00539105
0.0068007
0.00627209
0.00649059
0.00786216
0.00902132
0.00952924
0.0105031
0.0120519
0.0136747
0.0157206
0.000102053
0.000984566
0.00102338
0.00118937
0.000769166
-6.33681e-05
4.13362e-05
0.00221474
0.00218385
0.00538607
0.00679387
0.00627287
0.00650416
0.00784594
0.00903845
0.00951377
0.0104834
0.0119878
0.0135151
0.0153976
0.000120201
0.000999914
0.0010432
0.00124135
0.000761166
-9.44518e-06
0.000150345
0.00223371
0.00220143
0.00538054
0.00678775
0.00626945
0.00651725
0.00782926
0.00905315
0.00949992
0.0104529
0.0119201
0.01334
0.0150715
0.000139184
0.0010167
0.00106453
0.00129397
0.000755067
4.49236e-05
0.000262813
0.00225423
0.00222235
0.00537396
0.00678233
0.00626163
0.00652902
0.00781281
0.00906431
0.00948814
0.010411
0.0118467
0.0131538
0.0147417
0.000159084
0.00103468
0.00108719
0.00134638
0.00075072
9.94045e-05
0.00037792
0.00227618
0.00224658
0.00536601
0.00677782
0.00624959
0.00653884
0.00779737
0.00907087
0.00947852
0.0103578
0.0117657
0.0129609
0.0144069
0.000179986
0.00105376
0.00111117
0.00139806
0.000748198
0.00015375
0.000495064
0.00229966
0.00227401
0.0053565
0.00677444
0.00623388
0.00654618
0.00778371
0.00907199
0.00947049
0.0102942
0.0116745
0.0127647
0.014068
0.000201977
0.00107387
0.00113648
0.00144876
0.000747801
0.000207866
0.000613752
0.00232484
0.00230446
0.00534533
0.00677239
0.00621531
0.00655045
0.00777257
0.00906719
0.00946273
0.0102217
0.0115705
0.0125675
0.0137271
0.000225154
0.001095
0.00116313
0.00149832
0.000749971
0.000261797
0.000733595
0.00235185
0.00233763
0.00533245
0.00677175
0.0061948
0.00655116
0.00776434
0.00905647
0.00945361
0.010142
0.0114523
0.0123704
0.0133869
0.000249613
0.00111712
0.00119112
0.00154669
0.000755186
0.000315606
0.00085426
0.00238083
0.0023731
0.00531793
0.00677246
0.00617329
0.00654788
0.0077589
0.0090402
0.00944155
0.0100564
0.011319
0.0121734
0.0130504
0.000275462
0.00114022
0.00122046
0.00159384
0.000763868
0.000369386
0.000975326
0.00241188
0.0024105
0.00530192
0.00677434
0.00615157
0.00654023
0.00775576
0.00901901
0.00942499
0.00996574
0.0111709
0.0119759
0.0127209
0.000302807
0.0011643
0.00125121
0.00163972
0.000776329
0.000423268
0.00109636
0.00244513
0.00244951
0.00528453
0.00677718
0.00613041
0.00652792
0.00775427
0.00899335
0.00940238
0.00987107
0.0110091
0.0117761
0.0124017
0.000331753
0.00118935
0.00128343
0.00168428
0.000792803
0.000477358
0.00121698
0.0024807
0.00248986
0.00526584
0.00678067
0.00611044
0.00651079
0.0077539
0.0089635
0.00937205
0.00977293
0.0108354
0.0115723
0.0120948
0.000362394
0.00121541
0.00131717
0.00172745
0.000813469
0.000531776
0.00133676
0.00251876
0.00253136
0.00524605
0.00678452
0.00609202
0.00648887
0.0077541
0.00893
0.00933272
0.00967111
0.0106518
0.0113634
0.0118009
0.00039482
0.0012425
0.00135246
0.00176919
0.000838438
0.000586665
0.00145529
0.00255949
0.0025738
0.00522532
0.00678857
0.00607537
0.00646193
0.00775412
0.00889361
0.0092836
0.00956522
0.0104603
0.0111489
0.0115197
0.000429102
0.00127069
0.00138938
0.00180951
0.000867726
0.000642172
0.0015722
0.00260302
0.00261714
0.00520376
0.00679247
0.00606089
0.00642966
0.00775295
0.00885511
0.00922421
0.0094551
0.0102627
0.0109442
0.0112508
0.000465316
0.00130008
0.00142792
0.00184843
0.000901321
0.000698449
0.00168721
0.00264939
0.00266139
0.00518144
0.00679571
0.00604906
0.00639204
0.00774941
0.00881503
0.00915442
0.00934063
0.01006
0.0107193
0.0109953
0.000503535
0.00133082
0.00146799
0.00188597
0.00093923
0.000755581
0.00180009
0.00269866
0.00270648
0.00515849
0.00679801
0.0060401
0.00634915
0.0077422
0.00877398
0.00907427
0.0092214
0.00985458
0.0104868
0.0107517
0.000543786
0.00136312
0.00150958
0.00192224
0.000981431
0.00081363
0.00191061
0.00275094
0.00275228
0.00513508
0.00679911
0.00603409
0.00630118
0.00772999
0.00873233
0.00898404
0.00909636
0.00965015
0.0102454
0.0105138
0.000586056
0.00139716
0.00155273
0.00195733
0.00102785
0.000872684
0.00201862
0.00280621
0.00279872
0.00511134
0.00679862
0.00603106
0.00624866
0.00771159
0.00869021
0.00888446
0.00896402
0.00945005
0.00999857
0.0102724
0.000630305
0.00143325
0.00159746
0.00199128
0.00107853
0.000932714
0.00212396
0.00286453
0.00284578
0.00508738
0.00679621
0.00603082
0.0061918
0.00768578
0.00864816
0.00877706
0.00882288
0.0092556
0.00975374
0.010021
0.000676468
0.00147166
0.00164381
0.00202414
0.00113358
0.000993599
0.00222638
0.00292625
0.00289323
0.00506306
0.00679173
0.00603303
0.00613062
0.00765128
0.00860649
0.00866434
0.00867204
0.00906443
0.00951718
0.00976242
0.00072446
0.0015127
0.00169188
0.00205591
0.00119314
0.0010552
0.0023255
0.00299173
0.00294116
0.00503812
0.00678491
0.00603759
0.00606548
0.00760707
0.00856485
0.00854851
0.00851197
0.00887291
0.00929117
0.00950639
0.000774211
0.0015566
0.00174192
0.00208654
0.00125736
0.00111751
0.00242068
0.00306124
0.00298873
0.00501205
0.00677562
0.00604455
0.00599652
0.00755215
0.00852295
0.00843106
0.00834375
0.00867963
0.00907454
0.00926121
0.000825656
0.00160357
0.00179429
0.00211585
0.00132646
0.00118081
0.00251113
0.00313521
0.00303671
0.00498387
0.00676381
0.00605409
0.00592374
0.00748531
0.00848075
0.00831398
0.00816732
0.00848566
0.00886545
0.00902986
0.000878714
0.00165372
0.00184942
0.00214348
0.00140061
0.00124558
0.00259583
0.00321412
0.00308577
0.00495241
0.00674874
0.00606683
0.00584782
0.00740464
0.00843768
0.00820072
0.00798232
0.00829034
0.00866415
0.00881189
0.000933421
0.0017069
0.00190803
0.00216933
0.00147951
0.00131258
0.00267334
0.00329795
0.00313729
0.00491666
0.00672917
0.00608386
0.00576993
0.00730769
0.00839213
0.0080959
0.0077895
0.00809127
0.00847339
0.00860745
0.000989908
0.00176272
0.00197109
0.0021936
0.00156257
0.00138303
0.00274216
0.00338586
0.00319309
0.00487597
0.00670347
0.00610558
0.00569166
0.00719301
0.00834147
0.00800323
0.00759174
0.00788414
0.00829406
0.00842064
0.00104834
0.00182065
0.00203949
0.00221683
0.00164862
0.00145838
0.00280149
0.00347619
0.00325502
0.00483034
0.00666922
0.00613187
0.00561579
0.00706016
0.00828155
0.00792509
0.00739498
0.00766334
0.00812196
0.00825699
0.00110893
0.00187986
0.00211418
0.00223999
0.00173585
0.00154027
0.0028514
0.00356639
0.00332431
0.00477894
0.00662358
0.00616199
0.00554601
0.00690957
0.00820757
0.00786276
0.00720724
0.007426
0.00794853
0.00811792
0.00117209
0.00193938
0.00219571
0.00226452
0.00182207
0.0016302
0.002893
0.00365326
0.00340175
0.00472648
0.00656442
0.00619423
0.00548634
0.00674346
0.00811487
0.00781484
0.00703675
0.00717453
0.00776306
0.00799804
0.00123839
0.00199819
0.00228459
0.00229286
0.00190476
0.00172833
0.00292849
0.0037331
0.00348788
0.00467479
0.00649014
0.00622611
0.00544028
0.00656505
0.00799796
0.00777864
0.00689085
0.00691455
0.0075559
0.00788699
0.00130838
0.00205562
0.00237997
0.00232804
0.00198248
0.00183332
0.00296087
0.00380227
0.00358202
0.00462752
0.00640027
0.00625399
0.00541075
0.00637822
0.00785394
0.00774895
0.00677577
0.00665474
0.00732099
0.00777183
0.00138264
0.00211115
0.00247892
0.00237248
0.00205512
0.00194337
0.00299293
0.00385862
0.00368125
0.00458767
0.00629619
0.00627402
0.00539875
0.00618949
0.00768037
0.00771673
0.00669744
0.00640754
0.00705733
0.00763852
0.00146214
0.00216407
0.00258026
0.00242867
0.0021233
0.00205716
0.00302716
0.00389903
0.00377943
0.00455899
0.00618367
0.00628319
0.0054032
0.00600709
0.00747824
0.00767095
0.0066546
0.00618626
0.00677037
0.00747427
0.00154766
0.00221442
0.00268094
0.00249887
0.00218844
0.00217112
0.00306622
0.00392305
0.00387123
0.00454336
0.00606971
0.00627946
0.00542143
0.00583799
0.00725231
0.00760134
0.0066395
0.00600439
0.00647267
0.00727071
0.0016395
0.00226296
0.00277764
0.00258954
0.00225254
0.00227639
0.00311163
0.00394277
0.00395493
0.00453734
0.0059547
0.00626093
0.00544979
0.00568729
0.00700953
0.0075001
0.00664058
0.00587171
0.00618206
0.00702617
0.00173817
0.00231044
0.0028682
0.00269168
0.0023177
0.00237065
0.00316468
0.00396426
0.00402872
0.0045358
0.00584069
0.00622734
0.00548446
0.00555887
0.0067581
0.0073644
0.00664366
0.00578862
0.00591704
0.00674865
0.00184364
0.00235837
0.00295044
0.00280484
0.00238951
0.00245499
0.00322217
0.00398895
0.00409313
0.00453675
0.00572871
0.00617994
0.00552182
0.00545474
0.00650657
0.00719578
0.00663492
0.00574589
0.00569426
0.00645586
0.00195559
0.00240897
0.00302133
0.00292547
0.00247384
0.0025304
0.00327708
0.00401797
0.00415263
0.00453977
0.0056196
0.00611964
0.00555745
0.00537471
0.00626275
0.0069991
0.00660376
0.00573071
0.00552213
0.00616891
0.00207374
0.00246442
0.00308057
0.00304959
0.00257346
0.00259803
0.00332407
0.00405119
0.00421247
0.0045459
0.00551344
0.00604645
0.00558638
0.00531742
0.00603471
0.00678177
0.00654509
0.00572978
0.00539905
0.00590703
0.00219736
0.00252705
0.00312838
0.00317083
0.0026891
0.00266228
0.00336044
0.00408615
0.00427529
0.00455711
0.00541096
0.00596069
0.00560527
0.00528077
0.00582889
0.006552
0.00645767
0.00573107
0.00531732
0.00568371
0.00232539
0.00259904
0.00316635
0.00328169
0.00281953
0.00273072
0.00338576
0.00411748
0.00434088
0.00457624
0.00531538
0.00586403
0.0056114
0.00526121
0.00564929
0.00631822
0.00634299
0.00572517
0.00526754
0.00550462
0.00245635
0.00268133
0.00319827
0.00337622
0.00296068
0.00281102
0.00340243
0.00413937
0.00440747
0.00460508
0.00523026
0.00575876
0.00560134
0.00525357
0.00550016
0.00608981
0.00620539
0.00570625
0.00523953
0.00536767
0.00258892
0.00277404
0.00322853
0.00345332
0.00310599
0.00290787
0.00341614
0.00414739
0.00446944
0.0046441
0.00515941
0.00564972
0.00557469
0.00525098
0.00537888
0.00587513
0.00605066
0.00567047
0.00522368
0.00526547
0.00272154
0.0028759
0.00326207
0.00351335
0.00324859
0.00302217
0.00343487
0.00414086
0.00451881
0.00469125
0.00510646
0.00554291
0.00553202
0.00524496
0.00528231
0.00567955
0.00588584
0.00561604
0.00521343
0.00519216
0.00285289
0.00298542
0.00330284
0.00355907
0.00338131
0.00315173
0.00346549
0.00412273
0.00455016
0.00474109
0.00507305
0.00544457
0.00547551
0.00523311
0.00520472
0.00550556
0.00571876
0.00554396
0.00520353
0.00514434
0.0029822
0.00310002
0.00335416
0.00359549
0.00349875
0.00329056
0.00351278
0.00410079
0.00456176
0.00478502
0.00505731
0.00536067
0.00540829
0.00521175
0.00514142
0.00535365
0.00555542
0.00545681
0.00518735
0.00511673
0.00310923
0.0032173
0.00341681
0.00362823
0.00359872
0.00343032
0.00357812
0.00408412
0.00455517
0.00481577
0.00505372
0.00529408
0.00533612
0.00518178
0.00508776
0.00522312
0.00539957
0.00535863
0.00516005
0.00510189
0.0032341
0.00333493
0.00349015
0.00366275
0.00368125
0.00356312
0.00365955
0.00407989
0.00453656
0.00482994
0.00505479
0.00524564
0.00528003
0.00514687
0.00503898
0.00511217
0.00525478
0.00525384
0.0051202
0.00509071
0.00335696
0.00345083
0.0035726
0.00370352
0.00374878
0.00368342
0.00375191
0.00409181
0.0045147
0.0048275
0.00505324
0.00521201
0.00523279
0.00511308
0.00499594
0.00501831
0.00512426
0.0051472
0.00506945
0.00507575
0.00347808
0.0035642
0.00366092
0.00375261
0.00380626
0.0037882
0.00384819
0.00411998
0.00449793
0.00481275
0.00504367
0.00518728
0.00519596
0.00508346
0.00496041
0.00494026
0.00500877
0.00504309
0.00501109
0.00505439
0.00359758
0.00367477
0.00375152
0.00381008
0.00385942
0.00387717
0.00394177
0.00416211
0.00449108
0.00479323
0.00502536
0.0051647
0.00516937
0.00505936
0.00493298
0.00487926
0.00490918
0.00494469
0.0049481
0.00502633
0.00371523
0.00378241
0.0038418
0.00387465
0.00391263
0.00395217
0.00402788
0.00421378
0.00449576
0.00477547
0.00500192
0.00513991
0.00514892
0.0050436
0.00491307
0.004835
0.00482855
0.00485542
0.00488406
0.0049925
0.00383043
0.00388712
0.00393053
0.00394407
0.00396793
0.00401684
0.00410429
0.00426949
0.00451184
0.00476382
0.00497819
0.00511353
0.00513024
0.0050361
0.004902
0.00480502
0.00476858
0.00477914
0.00482272
0.00495531
0.00394248
0.00398912
0.00401702
0.0040154
0.0040257
0.00407519
0.00417095
0.00432461
0.00453714
0.00476109
0.00495807
0.00508849
0.00511264
0.00503224
0.00490081
0.00478838
0.00472817
0.0047199
0.00476793
0.00491832
0.00405048
0.00408812
0.00410113
0.00408637
0.0040851
0.00413013
0.00422913
0.00437638
0.00456814
0.00476817
0.00494532
0.00506732
0.00509835
0.00502991
0.00490711
0.00478563
0.00470575
0.00467994
0.00472456
0.00488571
0.0041536
0.0041833
0.00418266
0.00415585
0.00414471
0.00418304
0.00428086
0.00442369
0.00460136
0.0047834
0.0049429
0.00505341
0.00508781
0.00503192
0.00491932
0.00479584
0.00470089
0.0046592
0.00469617
0.00486153
0.00425125
0.00427393
0.00426098
0.0042229
0.00420295
0.0042339
0.00432784
0.00446662
0.00463538
0.00480457
0.00495054
0.00505035
0.00508256
0.00504122
0.00493916
0.0048179
0.00471426
0.00465822
0.00468497
0.00484808
0.00434257
0.00435934
0.00433552
0.0042869
0.00425854
0.00428191
0.00437057
0.00450514
0.0046692
0.00483102
0.00496716
0.00506017
0.00509231
0.00506023
0.00497021
0.00485331
0.0047464
0.00467914
0.00469382
0.00484951
0.00442673
0.00443811
0.004405
0.00434716
0.004311
0.00432696
0.00440956
0.00453924
0.00470052
0.00486092
0.00499273
0.00508258
0.00511842
0.00509369
0.00501677
0.00490712
0.00479977
0.00472521
0.00472714
0.00487139
0.00450294
0.00450943
0.00446841
0.00440193
0.00435864
0.00436825
0.00444476
0.00456951
0.00472863
0.00489131
0.00502558
0.0051177
0.00516209
0.0051478
0.00508418
0.00498571
0.00488103
0.00480278
0.00479331
0.00492274
0.00457048
0.0045739
0.00452485
0.00444982
0.00439931
0.00440379
0.00447531
0.00459514
0.00475194
0.00491813
0.00506192
0.00517106
0.0052303
0.00523229
0.00517817
0.00508379
0.00497829
0.00489685
0.00488056
0.00499523
0.00462679
0.00462772
0.00457469
0.00449335
0.0044332
0.00443061
0.00449948
0.00461607
0.0047674
0.00493573
0.00508988
0.00523203
0.00534275
0.00539717
0.00538979
0.00532431
0.00521552
0.00510738
0.00504876
0.00511367
0.00466975
0.00466998
0.00461717
0.00453061
0.00446072
0.00444743
0.00451184
0.0046274
0.00479074
0.00494884
0.00508834
0.00521824
0.00533424
0.00542248
0.00548403
0.00550866
0.0054909
0.0054191
0.00536742
0.0054186
0.00470413
0.00470324
0.00464117
0.00454946
0.00448459
0.00447385
0.00452885
0.00462636
0.00478364
0.00499603
0.00522623
0.00547213
0.00569758
0.0058504
0.0059044
0.00587137
0.00579462
0.00570695
0.00560965
0.00556724
0.00472504
0.00472362
0.0046508
0.00454429
0.00447002
0.00445544
0.00450316
0.00459234
0.00468547
0.0047442
0.00480907
0.00500411
0.00541869
0.00593406
0.0063899
0.0067074
0.00691936
0.00708847
0.00727608
0.00744357
0.00471738
0.00471698
0.00467231
0.00460552
0.00455866
0.00453504
0.00453023
0.00455258
0.00470914
0.00500671
0.00541012
0.00580817
0.00607884
0.00623704
0.00635123
0.00646695
0.00661972
0.00681393
0.00700347
0.00712268
0.00469532
0.00469714
0.00462153
0.00451236
0.00442983
0.00442986
0.00454281
0.00477871
0.00503344
0.00527159
0.00545758
0.0056133
0.00578349
0.0060155
0.00634
0.00673204
0.00712863
0.00747574
0.00774123
0.00789539
0.00461913
0.0046582
0.00467079
0.00469028
0.00475266
0.00481012
0.00487973
0.0049897
0.00514728
0.0053442
0.00554671
0.00576696
0.00597942
0.00611349
0.00617571
0.00615189
0.00605783
0.00591068
0.00573906
0.00558455
0.00448293
0.0045131
0.00462892
0.00473079
0.00478027
0.00482562
0.00490849
0.00501161
0.00513192
0.00529853
0.00548483
0.00566938
0.00590472
0.00616779
0.00645271
0.00676779
0.0070956
0.00740987
0.00765743
0.00778219
0.0044114
0.00446142
0.0046205
0.00482425
0.00501044
0.00509442
0.00514679
0.00521448
0.00530462
0.0054306
0.00559792
0.0057529
0.00592256
0.00609824
0.00624313
0.00639107
0.00655163
0.00672834
0.00688548
0.00693219
0.0247914
0.017931
0.00933935
0.00319062
0.0015651
0.00246209
0.00360681
0.00447384
0.0050615
0.00540208
0.00567811
0.00601651
0.00630738
0.00644977
0.0065375
0.00671962
0.0070124
0.00730541
0.00752779
0.00768694
0.00781904
0.00800834
0.00827959
0.00851842
0.0086606
0.00879847
0.00903024
0.00935626
0.00970437
0.0100154
0.0103092
0.0106296
0.0109628
0.0112653
0.0115309
0.0117875
0.0120406
0.0122833
0.0125452
0.0128691
0.0132281
0.0135681
0.0138997
0.0142663
0.0146461
0.0149863
0.0153003
0.0156393
0.0159943
0.0163309
0.0166721
0.0170646
0.0174703
0.0178521
0.0182586
0.0186952
0.0191172
0.0195448
0.0199913
0.0204314
0.020872
0.0213246
0.0217923
0.0222757
0.0227689
0.0232654
0.0237749
0.0242921
0.0248236
0.0253684
0.0259197
0.0264733
0.0270421
0.0276294
0.0282321
0.0288493
0.029474
0.0301102
0.0307549
0.03142
0.0320989
0.0327955
0.0334996
0.0342189
0.0349457
0.0356905
0.0364465
0.0372234
0.0380082
0.0388102
0.0396148
0.0404451
0.0412725
0.0421281
0.0429734
0.0438253
0.0446704
0.0454667
0.0461749
0.0468204
0.0238354
0.0177488
0.00941792
0.00334199
0.00165682
0.00250465
0.00363168
0.0044907
0.00507432
0.0054123
0.00568645
0.00602387
0.00631416
0.00645576
0.0065425
0.00672383
0.00701619
0.00730893
0.007531
0.00768984
0.00782152
0.00801042
0.00828155
0.00852039
0.00866241
0.0088
0.00903157
0.00935752
0.00970562
0.0100166
0.0103103
0.0106306
0.0109637
0.0112662
0.0115318
0.0117884
0.0120415
0.0122841
0.012546
0.0128698
0.0132288
0.0135687
0.0139004
0.0142669
0.0146467
0.0149868
0.0153008
0.0156398
0.0159948
0.0163313
0.0166725
0.017065
0.0174707
0.0178525
0.018259
0.0186956
0.0191175
0.0195451
0.0199916
0.0204317
0.0208723
0.0213249
0.0217926
0.0222759
0.0227692
0.0232656
0.0237751
0.0242923
0.0248238
0.0253686
0.0259199
0.0264735
0.0270422
0.0276296
0.0282322
0.0288495
0.0294741
0.0301104
0.0307551
0.0314202
0.032099
0.0327957
0.0334997
0.034219
0.0349458
0.0356906
0.0364466
0.0372235
0.0380083
0.0388103
0.0396149
0.0404452
0.0412726
0.0421282
0.0429735
0.0438253
0.0446704
0.0454667
0.0461749
0.0468204
0.0229791
0.0175676
0.00957898
0.00361972
0.0018144
0.00256259
0.00366063
0.00451142
0.00508997
0.00542458
0.0056963
0.00603185
0.00632084
0.0064616
0.00654769
0.0067284
0.00702019
0.00731243
0.00753413
0.00769268
0.00782398
0.00801249
0.00828346
0.00852222
0.008664
0.00880133
0.00903275
0.00935867
0.00970678
0.0100177
0.0103113
0.0106314
0.0109646
0.0112671
0.0115326
0.0117891
0.0120422
0.0122848
0.0125466
0.0128704
0.0132295
0.0135693
0.0139009
0.0142674
0.0146473
0.0149874
0.0153013
0.0156402
0.0159953
0.0163318
0.0166729
0.0170654
0.0174711
0.0178528
0.0182593
0.0186959
0.0191179
0.0195454
0.0199919
0.0204319
0.0208725
0.0213251
0.0217928
0.0222761
0.0227694
0.0232658
0.0237753
0.0242925
0.024824
0.0253688
0.02592
0.0264737
0.0270424
0.0276297
0.0282324
0.0288496
0.0294743
0.0301105
0.0307552
0.0314203
0.0320991
0.0327958
0.0334998
0.0342191
0.0349459
0.0356907
0.0364467
0.0372236
0.0380084
0.0388104
0.039615
0.0404453
0.0412727
0.0421282
0.0429735
0.0438254
0.0446705
0.0454668
0.046175
0.0468204
0.0221682
0.0173686
0.00978351
0.00397396
0.00203466
0.00264821
0.00370561
0.00454411
0.00511356
0.00544248
0.00571055
0.0060424
0.00632848
0.00646828
0.00655458
0.00673501
0.00702565
0.00731666
0.00753782
0.00769646
0.00782768
0.00801564
0.00828597
0.00852429
0.00866581
0.00880296
0.00903421
0.00935999
0.00970807
0.0100189
0.0103124
0.0106325
0.0109656
0.0112681
0.0115335
0.0117899
0.012043
0.0122854
0.0125471
0.012871
0.0132301
0.01357
0.0139015
0.0142679
0.0146478
0.0149879
0.0153018
0.0156407
0.0159957
0.0163322
0.0166733
0.0170658
0.0174715
0.0178532
0.0182596
0.0186962
0.0191182
0.0195457
0.0199922
0.0204322
0.0208728
0.0213254
0.021793
0.0222763
0.0227696
0.023266
0.0237755
0.0242927
0.0248242
0.025369
0.0259202
0.0264738
0.0270425
0.0276299
0.0282325
0.0288497
0.0294744
0.0301106
0.0307553
0.0314204
0.0320992
0.0327959
0.0334999
0.0342193
0.034946
0.0356908
0.0364468
0.0372237
0.0380085
0.0388105
0.0396151
0.0404453
0.0412727
0.0421283
0.0429736
0.0438255
0.0446706
0.0454669
0.0461751
0.0468205
0.021372
0.0171455
0.00999957
0.00435224
0.00228118
0.00274782
0.00375964
0.00458595
0.00514501
0.00546699
0.00573059
0.00605688
0.00633794
0.00647641
0.00656397
0.00674472
0.00703342
0.00732191
0.00754206
0.00770143
0.00783348
0.00802092
0.0082898
0.00852702
0.00866829
0.00880544
0.00903637
0.00936168
0.00970957
0.0100205
0.0103139
0.0106339
0.0109669
0.0112692
0.0115346
0.0117908
0.0120437
0.0122862
0.0125478
0.0128716
0.0132308
0.0135707
0.0139021
0.0142686
0.0146485
0.0149886
0.0153024
0.0156412
0.0159962
0.0163327
0.0166737
0.0170662
0.0174719
0.0178535
0.01826
0.0186966
0.0191185
0.019546
0.0199925
0.0204325
0.020873
0.0213256
0.0217933
0.0222766
0.0227699
0.0232662
0.0237757
0.0242929
0.0248244
0.0253692
0.0259204
0.026474
0.0270427
0.02763
0.0282327
0.0288499
0.0294746
0.0301108
0.0307554
0.0314206
0.0320994
0.032796
0.0335
0.0342194
0.0349461
0.0356909
0.0364469
0.0372238
0.0380086
0.0388106
0.0396152
0.0404454
0.0412728
0.0421284
0.0429737
0.0438256
0.0446707
0.045467
0.0461753
0.0468206
0.0205966
0.0168998
0.0102075
0.00473202
0.00253849
0.00285253
0.00381486
0.00463088
0.00518094
0.00549622
0.00575514
0.00607467
0.00634924
0.00648608
0.00657579
0.00675747
0.00704362
0.00732829
0.00754671
0.00770735
0.00784136
0.00802866
0.00829535
0.00853083
0.00867194
0.00880935
0.0090397
0.00936394
0.0097113
0.0100223
0.0103159
0.0106356
0.0109684
0.0112708
0.011536
0.0117921
0.0120447
0.012287
0.0125485
0.0128723
0.0132314
0.0135714
0.0139029
0.0142693
0.0146492
0.0149893
0.0153031
0.0156418
0.0159968
0.0163332
0.0166742
0.0170667
0.0174724
0.017854
0.0182604
0.018697
0.0191189
0.0195464
0.0199929
0.0204329
0.0208734
0.0213259
0.0217936
0.0222769
0.0227701
0.0232665
0.023776
0.0242931
0.0248246
0.0253694
0.0259206
0.0264742
0.0270429
0.0276302
0.0282328
0.0288501
0.0294747
0.0301109
0.0307556
0.0314207
0.0320995
0.0327962
0.0335002
0.0342195
0.0349463
0.035691
0.036447
0.0372239
0.0380087
0.0388107
0.0396153
0.0404455
0.0412729
0.0421285
0.0429738
0.0438257
0.0446709
0.0454672
0.0461756
0.0468207
0.01985
0.016629
0.0103954
0.00510669
0.00280538
0.0029626
0.00386983
0.00467668
0.0052197
0.00552873
0.00578268
0.00609475
0.00636201
0.00649699
0.00658932
0.00677234
0.00705564
0.00733568
0.00755177
0.00771392
0.00785077
0.00803832
0.00830239
0.00853577
0.00867708
0.00881514
0.00904462
0.00936706
0.00971338
0.0100245
0.0103182
0.0106376
0.0109701
0.0112726
0.011538
0.0117937
0.012046
0.0122881
0.0125495
0.012873
0.0132321
0.0135721
0.0139037
0.0142701
0.01465
0.0149902
0.015304
0.0156426
0.0159975
0.0163338
0.0166748
0.0170672
0.0174729
0.0178545
0.0182609
0.0186975
0.0191194
0.0195468
0.0199933
0.0204333
0.0208737
0.0213263
0.0217939
0.0222772
0.0227705
0.0232668
0.0237763
0.0242934
0.0248249
0.0253696
0.0259209
0.0264744
0.0270431
0.0276304
0.028233
0.0288502
0.0294749
0.0301111
0.0307558
0.0314208
0.0320997
0.0327963
0.0335003
0.0342196
0.0349464
0.0356911
0.0364472
0.0372241
0.0380088
0.0388108
0.0396154
0.0404456
0.041273
0.0421286
0.042974
0.0438258
0.0446711
0.0454675
0.0461761
0.0468209
0.019135
0.0163305
0.0105589
0.00547707
0.00308517
0.003081
0.00392516
0.00472261
0.00526055
0.00556385
0.00581253
0.00611666
0.00637608
0.00650889
0.00660391
0.00678845
0.00706881
0.00734387
0.00755729
0.00772098
0.00786103
0.00804899
0.00831019
0.0085415
0.00868363
0.00882287
0.00905131
0.00937125
0.009716
0.0100271
0.010321
0.0106398
0.0109717
0.0112745
0.0115404
0.011796
0.0120478
0.0122897
0.0125509
0.012874
0.0132327
0.0135728
0.0139047
0.014271
0.0146508
0.0149911
0.0153051
0.0156436
0.0159982
0.0163346
0.0166756
0.0170679
0.0174735
0.0178551
0.0182615
0.0186981
0.0191199
0.0195474
0.0199938
0.0204338
0.0208742
0.0213267
0.0217943
0.0222776
0.0227708
0.0232672
0.0237766
0.0242937
0.0248252
0.0253699
0.0259211
0.0264747
0.0270433
0.0276306
0.0282332
0.0288505
0.0294751
0.0301113
0.0307559
0.031421
0.0320998
0.0327965
0.0335005
0.0342198
0.0349466
0.0356913
0.0364473
0.0372242
0.0380089
0.038811
0.0396155
0.0404458
0.0412732
0.0421287
0.0429741
0.043826
0.0446713
0.0454679
0.0461767
0.0468212
0.0184524
0.0160086
0.0106985
0.00584398
0.00337902
0.00320929
0.00398103
0.00476782
0.00530279
0.00560131
0.00584461
0.00614035
0.00639136
0.00652159
0.00661923
0.00680538
0.00708282
0.00735277
0.00756334
0.00772848
0.00787177
0.0080601
0.00831825
0.00854759
0.00869111
0.00883212
0.00905956
0.00937654
0.00971927
0.0100302
0.0103242
0.010642
0.0109731
0.0112762
0.0115428
0.0117986
0.0120501
0.012292
0.012553
0.0128754
0.0132335
0.0135736
0.0139056
0.0142717
0.0146514
0.0149921
0.0153065
0.0156448
0.0159992
0.0163356
0.0166766
0.0170687
0.0174741
0.0178558
0.0182622
0.0186987
0.0191205
0.019548
0.0199945
0.0204344
0.0208747
0.0213272
0.0217948
0.0222781
0.0227713
0.0232676
0.023777
0.0242941
0.0248255
0.0253703
0.0259215
0.026475
0.0270436
0.0276309
0.0282335
0.0288507
0.0294753
0.0301115
0.0307561
0.0314212
0.0321
0.0327967
0.0335006
0.03422
0.0349467
0.0356914
0.0364475
0.0372243
0.0380091
0.0388111
0.0396156
0.0404459
0.0412733
0.0421289
0.0429743
0.0438262
0.0446716
0.0454684
0.0461776
0.0468216
0.0178054
0.0156705
0.0108135
0.00620406
0.0036854
0.00334843
0.0040378
0.00481155
0.00534576
0.00564109
0.00587915
0.00616595
0.00640785
0.00653501
0.00663517
0.00682305
0.00709762
0.00736235
0.0075699
0.00773638
0.00788288
0.00807152
0.00832647
0.00855383
0.0086991
0.00884237
0.00906896
0.00938275
0.00972318
0.0100339
0.0103278
0.0106445
0.0109743
0.0112775
0.011545
0.0118012
0.0120528
0.0122949
0.0125558
0.0128773
0.0132346
0.0135747
0.0139067
0.0142724
0.0146517
0.014993
0.0153079
0.0156462
0.0160003
0.0163369
0.016678
0.0170697
0.0174749
0.0178566
0.018263
0.0186994
0.0191211
0.0195487
0.0199952
0.020435
0.0208753
0.0213278
0.0217954
0.0222786
0.0227718
0.0232681
0.0237775
0.0242945
0.024826
0.0253707
0.0259219
0.0264754
0.0270439
0.0276312
0.0282338
0.028851
0.0294756
0.0301117
0.0307564
0.0314214
0.0321002
0.0327969
0.0335009
0.0342201
0.0349469
0.0356916
0.0364476
0.0372245
0.0380093
0.0388113
0.0396158
0.0404461
0.0412735
0.0421291
0.0429745
0.0438264
0.0446719
0.0454691
0.0461787
0.0468221
0.0171978
0.0153221
0.0109002
0.00655218
0.00400278
0.00350032
0.00409663
0.00485336
0.00538889
0.00568322
0.00591644
0.0061937
0.00642564
0.0065492
0.0066518
0.00684154
0.00711326
0.00737261
0.00757693
0.00774462
0.00789437
0.00808336
0.00833499
0.00856022
0.00870735
0.00885321
0.00907919
0.00938973
0.00972763
0.0100379
0.0103319
0.0106472
0.0109754
0.0112785
0.0115468
0.0118036
0.0120557
0.0122984
0.0125593
0.0128798
0.013236
0.013576
0.013908
0.014273
0.0146519
0.0149936
0.0153093
0.0156476
0.0160015
0.0163383
0.0166796
0.017071
0.0174758
0.0178575
0.0182639
0.0187
0.0191218
0.0195494
0.0199959
0.0204358
0.0208761
0.0213285
0.021796
0.0222793
0.0227725
0.0232687
0.0237781
0.0242951
0.0248265
0.0253712
0.0259224
0.0264758
0.0270444
0.0276316
0.0282342
0.0288514
0.0294759
0.030112
0.0307566
0.0314217
0.0321005
0.0327971
0.0335011
0.0342204
0.0349471
0.0356918
0.0364478
0.0372247
0.0380095
0.0388115
0.039616
0.0404463
0.0412737
0.0421292
0.0429748
0.0438267
0.0446723
0.04547
0.0461802
0.0468228
0.0166299
0.0149679
0.0109557
0.00688427
0.0043302
0.00366718
0.00415909
0.00489308
0.00543154
0.00572756
0.00595673
0.00622384
0.00644486
0.00656422
0.00666919
0.00686092
0.00712977
0.00738354
0.00758439
0.00775321
0.00790629
0.0080957
0.00834391
0.00856682
0.00871581
0.0088645
0.00909009
0.00939735
0.00973256
0.0100424
0.0103362
0.0106501
0.0109765
0.0112793
0.0115484
0.0118058
0.0120585
0.0123022
0.0125634
0.0128828
0.0132378
0.0135776
0.0139096