/*--------------------------------*- C++ -*----------------------------------*\
| =========                 |                                                 |
| \\      /  F ield         | OpenFOAM: The Open Source CFD Toolbox           |
|  \\    /   O peration     | Version:  2506                                  |
|   \\  /    A nd           | Website:  www.openfoam.com                      |
|    \\/     M anipulation  |                                                 |
\*---------------------------------------------------------------------------*/
FoamFile
{
    version     2.0;
    format      ascii;
    arch        "LSB;label=32;scalar=64";
    class       surfaceScalarField;
    location    "9.2";
    object      phi;
}
// * * * * * * * * * * * * * * * * * * * * * * * * * * * * * * * * * * * * * //

dimensions      [0 3 -1 0 0 0 0];

oriented        oriented;

internalField   nonuniform List<scalar> 
19000
(
1.15519e-06
-1.38371e-08
1.15275e-06
-2.75782e-07
1.30132e-06
-3.89089e-07
1.13264e-06
1.46854e-06
1.02213e-06
-6.8088e-07
1.17177e-06
5.51066e-09
1.195e-06
1.63941e-08
1.15615e-06
1.0066e-06
1.1864e-06
7.36941e-07
1.16301e-06
8.51495e-07
1.16847e-06
5.60339e-07
1.16356e-06
3.76875e-07
1.14808e-06
-4.80222e-08
1.16731e-06
6.93319e-08
1.17293e-06
-7.91954e-08
1.16926e-06
9.9238e-09
1.17714e-06
1.0889e-07
1.1696e-06
1.70064e-07
1.16709e-06
2.10055e-07
2.40182e-07
1.14761e-06
1.21077e-06
-3.48559e-10
1.20347e-06
-2.68481e-07
1.36441e-06
-5.50029e-07
1.20749e-06
1.62546e-06
1.09528e-06
-5.68668e-07
1.2328e-06
-1.32008e-07
1.25268e-06
-3.4822e-09
1.21709e-06
1.04219e-06
1.24683e-06
7.07203e-07
1.23035e-06
8.6797e-07
1.22797e-06
5.62719e-07
1.2374e-06
3.67444e-07
1.21476e-06
-2.53842e-08
1.23882e-06
4.52754e-08
1.23544e-06
-7.58206e-08
1.24101e-06
4.35452e-09
1.23033e-06
1.19578e-07
1.24447e-06
1.5592e-07
1.21131e-06
2.43212e-07
2.17965e-07
1.23353e-06
1.26879e-06
1.3649e-08
1.25448e-06
-2.54173e-07
1.42419e-06
-7.19736e-07
1.30549e-06
1.74416e-06
1.18131e-06
-4.44498e-07
1.29974e-06
-2.50437e-07
1.32007e-06
-2.38096e-08
1.29503e-06
1.06723e-06
1.31093e-06
6.91308e-07
1.31418e-06
8.64711e-07
1.29741e-06
5.79499e-07
1.32276e-06
3.42087e-07
1.28866e-06
8.72324e-09
1.31352e-06
2.0407e-08
1.30321e-06
-6.55067e-08
1.31207e-06
-4.50759e-09
1.29674e-06
1.34909e-07
1.30547e-06
1.47193e-07
1.28508e-06
2.63599e-07
2.23893e-07
1.27915e-06
1.32914e-06
2.86108e-08
1.30504e-06
-2.3007e-07
1.48332e-06
-8.98019e-07
1.42253e-06
1.80495e-06
1.27826e-06
-3.00222e-07
1.37001e-06
-3.42193e-07
1.3919e-06
-4.5694e-08
1.38389e-06
1.07524e-06
1.38158e-06
6.93612e-07
1.40125e-06
8.4504e-07
1.37651e-06
6.04239e-07
1.40276e-06
3.15844e-07
1.36649e-06
4.49837e-08
1.3802e-06
6.69844e-09
1.37272e-06
-5.80277e-08
1.37746e-06
-9.24807e-09
1.36865e-06
1.43719e-07
1.36856e-06
1.47289e-07
1.35912e-06
2.7304e-07
2.37988e-07
1.34502e-06
1.39178e-06
4.51891e-08
1.35728e-06
-1.95579e-07
1.5407e-06
-1.08143e-06
1.54858e-06
1.79707e-06
1.37988e-06
-1.31519e-07
1.43794e-06
-4.00257e-07
1.46415e-06
-7.19003e-08
1.47397e-06
1.06542e-06
1.45749e-06
7.10091e-07
1.48202e-06
8.20512e-07
1.46017e-06
6.26091e-07
1.4751e-06
3.00916e-07
1.4436e-06
7.64861e-08
1.44343e-06
6.86183e-09
1.43877e-06
-5.33699e-08
1.44177e-06
-1.22439e-08
1.43885e-06
1.46637e-07
1.43663e-06
1.49509e-07
1.43189e-06
2.77779e-07
2.52098e-07
1.41778e-06
1.45716e-06
6.371e-08
1.41468e-06
-1.53104e-07
1.59554e-06
-1.26229e-06
1.6668e-06
1.72581e-06
1.48023e-06
5.50429e-08
1.50051e-06
-4.20537e-07
1.53343e-06
-1.04812e-07
1.55832e-06
1.04053e-06
1.53739e-06
7.31012e-07
1.55705e-06
8.00855e-07
1.54314e-06
6.40004e-07
1.54458e-06
2.9947e-07
1.51768e-06
1.03389e-07
1.50758e-06
1.69662e-08
1.50111e-06
-4.69075e-08
1.50433e-06
-1.54568e-08
1.50619e-06
1.44771e-07
1.50538e-06
1.50325e-07
1.50474e-06
2.78421e-07
2.64411e-07
1.49242e-06
1.52645e-06
8.34782e-08
1.48034e-06
-1.07e-07
1.64766e-06
-1.42961e-06
1.76308e-06
1.61039e-06
1.5763e-06
2.41821e-07
1.55988e-06
-4.04113e-07
1.59843e-06
-1.43358e-07
1.63578e-06
1.00318e-06
1.61946e-06
7.47334e-07
1.63115e-06
7.89159e-07
1.62294e-06
6.48214e-07
1.61472e-06
3.07698e-07
1.58983e-06
1.2827e-07
1.57415e-06
3.26465e-08
1.56337e-06
-3.61278e-08
1.56557e-06
-1.76529e-08
1.57105e-06
1.39291e-07
1.57257e-06
1.48808e-07
1.57619e-06
2.74795e-07
2.73805e-07
1.5668e-06
1.60124e-06
1.02365e-07
1.5558e-06
-6.15536e-08
1.69761e-06
-1.57142e-06
1.83358e-06
1.47442e-06
1.66801e-06
4.07384e-07
1.62145e-06
-3.5755e-07
1.65967e-06
-1.81577e-07
1.70733e-06
9.55513e-07
1.70052e-06
7.54147e-07
1.70648e-06
7.83193e-07
1.69977e-06
6.54926e-07
1.68645e-06
3.21021e-07
1.66235e-06
1.52374e-07
1.64403e-06
5.09633e-08
1.62919e-06
-2.12892e-08
1.62848e-06
-1.69384e-08
1.63533e-06
1.32433e-07
1.63849e-06
1.45649e-07
1.64584e-06
2.67445e-07
2.79756e-07
1.63989e-06
1.68262e-06
1.17321e-07
1.64086e-06
-1.97917e-08
1.74726e-06
-1.67783e-06
1.88433e-06
1.33735e-06
1.7561e-06
5.35617e-07
1.6901e-06
-2.91554e-07
1.71945e-06
-2.10919e-07
1.77352e-06
9.01439e-07
1.77728e-06
7.50389e-07
1.78187e-06
7.78604e-07
1.77477e-06
6.62025e-07
1.75992e-06
3.35868e-07
1.73701e-06
1.75286e-07
1.71811e-06
6.98619e-08
1.70077e-06
-3.94473e-09
1.69622e-06
-1.23881e-08
1.70221e-06
1.26439e-07
1.70538e-06
1.42481e-07
1.71516e-06
2.57663e-07
2.82386e-07
1.71253e-06
1.77023e-06
1.25812e-07
1.73408e-06
1.63586e-08
1.80018e-06
-1.74392e-06
1.92639e-06
1.21113e-06
1.841e-06
6.21008e-07
1.76783e-06
-2.18379e-07
1.7818e-06
-2.24893e-07
1.83607e-06
8.47172e-07
1.84882e-06
7.37638e-07
1.85587e-06
7.71552e-07
1.84925e-06
6.68644e-07
1.83565e-06
3.4947e-07
1.8151e-06
1.95833e-07
1.79718e-06
8.77857e-08
1.77908e-06
1.41583e-08
1.77076e-06
-4.07209e-09
1.77453e-06
1.22673e-07
1.77611e-06
1.40898e-07
1.7866e-06
2.47169e-07
2.82309e-07
1.78668e-06
1.86243e-06
1.27129e-07
1.83325e-06
4.55362e-08
1.86067e-06
-1.77134e-06
1.97069e-06
1.10111e-06
1.9235e-06
6.68201e-07
1.85374e-06
-1.48618e-07
1.85122e-06
-2.22375e-07
1.89955e-06
7.98847e-07
1.91803e-06
7.19154e-07
1.92933e-06
7.60248e-07
1.92497e-06
6.73004e-07
1.91465e-06
3.59799e-07
1.89758e-06
2.12903e-07
1.88165e-06
1.03716e-07
1.86424e-06
3.15652e-08
1.85281e-06
7.35671e-09
1.85388e-06
1.21599e-07
1.85295e-06
1.41829e-07
1.86251e-06
2.37612e-07
2.80413e-07
1.86441e-06
1.95745e-06
1.22522e-07
1.93613e-06
6.685e-08
1.93194e-06
-1.76715e-06
2.02465e-06
1.0084e-06
2.00525e-06
6.87605e-07
1.94558e-06
-8.89526e-08
1.93065e-06
-2.07445e-07
1.9699e-06
7.59604e-07
1.99032e-06
6.98733e-07
2.00537e-06
7.45192e-07
2.00416e-06
6.74223e-07
1.99799e-06
3.65968e-07
1.98493e-06
2.25959e-07
1.97142e-06
1.17226e-07
1.95576e-06
4.7228e-08
1.94218e-06
2.09287e-08
1.94074e-06
1.23046e-07
1.93715e-06
1.45411e-07
1.9446e-06
2.30163e-07
2.77591e-07
1.94743e-06
2.05442e-06
1.14287e-07
2.04118e-06
8.00916e-08
2.01476e-06
-1.74073e-06
2.09123e-06
9.3193e-07
2.08848e-06
6.90351e-07
2.04142e-06
-4.18927e-08
2.02052e-06
-1.86543e-07
2.05129e-06
7.28832e-07
2.07061e-06
6.79412e-07
2.08758e-06
7.28225e-07
2.08898e-06
6.72825e-07
2.08652e-06
3.6843e-07
2.07726e-06
2.35219e-07
2.06605e-06
1.28435e-07
2.05277e-06
6.0502e-08
2.03822e-06
3.5485e-08
2.03486e-06
1.264e-07
2.02918e-06
1.51091e-07
2.03404e-06
2.25304e-07
2.74505e-07
2.03713e-06
2.15362e-06
1.04669e-07
2.14788e-06
8.5832e-08
2.10786e-06
-1.7007e-06
2.17008e-06
8.69701e-07
2.17541e-06
6.85021e-07
2.1405e-06
-6.97395e-09
2.11926e-06
-1.65312e-07
2.1444e-06
7.03695e-07
2.16111e-06
6.62704e-07
2.17816e-06
7.11179e-07
2.1809e-06
6.70079e-07
2.18076e-06
3.68568e-07
2.17452e-06
2.41462e-07
2.1651e-06
1.37854e-07
2.15443e-06
7.11759e-08
2.14005e-06
4.98605e-08
2.13566e-06
1.30796e-07
2.12893e-06
1.57817e-07
2.13142e-06
2.22817e-07
2.71464e-07
2.13446e-06
2.25591e-06
9.52463e-08
2.25648e-06
8.52657e-08
2.20913e-06
-1.65336e-06
2.25961e-06
8.19223e-07
2.2679e-06
6.76729e-07
2.24317e-06
1.7761e-08
2.22477e-06
-1.46915e-07
2.24724e-06
6.81229e-07
2.2612e-06
6.48736e-07
2.27734e-06
6.95043e-07
2.28037e-06
6.6705e-07
2.281e-06
3.67937e-07
2.27683e-06
2.45631e-07
2.26852e-06
1.46159e-07
2.26022e-06
7.94805e-08
2.24694e-06
6.31403e-08
2.24232e-06
1.35412e-07
2.23576e-06
1.64377e-07
2.2366e-06
2.21985e-07
2.68474e-07
2.23959e-06
2.3623e-06
8.68247e-08
2.36765e-06
7.99163e-08
2.31682e-06
-1.60253e-06
2.35832e-06
7.77731e-07
2.36725e-06
6.67797e-07
2.3503e-06
3.4706e-08
2.33545e-06
-1.32059e-07
2.35708e-06
6.59596e-07
2.3689e-06
6.36918e-07
2.38404e-06
6.799e-07
2.387e-06
6.64092e-07
2.38729e-06
3.67647e-07
2.38444e-06
2.48477e-07
2.37664e-06
1.53958e-07
2.37014e-06
8.59888e-08
2.35844e-06
7.48322e-08
2.35411e-06
1.39747e-07
2.34869e-06
1.69792e-07
2.34875e-06
2.21925e-07
2.65424e-07
2.3518e-06
2.4736e-06
7.96163e-08
2.48218e-06
7.13447e-08
2.42994e-06
-1.5503e-06
2.46525e-06
7.42416e-07
2.47415e-06
6.58898e-07
2.46272e-06
4.61417e-08
2.4506e-06
-1.19946e-07
2.47195e-06
6.38254e-07
2.48231e-06
6.26551e-07
2.49689e-06
6.65325e-07
2.50008e-06
6.60903e-07
2.49958e-06
3.68143e-07
2.49764e-06
2.50417e-07
2.48997e-06
1.61626e-07
2.48454e-06
9.14211e-08
2.47451e-06
8.48574e-08
2.47057e-06
1.43687e-07
2.46676e-06
1.73611e-07
2.46679e-06
2.21895e-07
2.62269e-07
2.46994e-06
2.59043e-06
7.34773e-08
2.60083e-06
6.09446e-08
2.54817e-06
-1.49763e-06
2.57985e-06
7.10729e-07
2.58877e-06
6.49977e-07
2.58091e-06
5.40032e-08
2.57027e-06
-1.09304e-07
2.59103e-06
6.17493e-07
2.60044e-06
6.17138e-07
2.61496e-06
6.50805e-07
2.61897e-06
6.56894e-07
2.61778e-06
3.69333e-07
2.61661e-06
2.51589e-07
2.60897e-06
1.69268e-07
2.60395e-06
9.64413e-08
2.59541e-06
9.33992e-08
2.5917e-06
1.47398e-07
2.58937e-06
1.75934e-07
2.58984e-06
2.21427e-07
2.5911e-07
2.593e-06
2.71321e-06
6.80964e-08
2.72431e-06
4.98479e-08
2.67162e-06
-1.44494e-06
2.70172e-06
6.80629e-07
2.71092e-06
6.40771e-07
2.70511e-06
5.98175e-08
2.69486e-06
-9.90515e-08
2.71449e-06
5.97854e-07
2.72323e-06
6.08406e-07
2.73805e-06
6.3598e-07
2.7434e-06
6.5155e-07
2.74187e-06
3.70857e-07
2.74147e-06
2.5199e-07
2.73395e-06
1.76783e-07
2.72886e-06
1.01538e-07
2.72152e-06
1.00736e-07
2.71779e-06
1.51129e-07
2.7165e-06
1.77229e-07
2.71762e-06
2.20308e-07
2.5613e-07
2.72059e-06
2.84225e-06
6.31167e-08
2.85318e-06
3.89121e-08
2.80061e-06
-1.39236e-06
2.83054e-06
6.50699e-07
2.84031e-06
6.30996e-07
2.8354e-06
6.47287e-08
2.82488e-06
-8.85329e-08
2.84301e-06
5.79728e-07
2.8512e-06
6.0021e-07
2.8665e-06
6.2068e-07
2.87343e-06
6.44619e-07
2.87195e-06
3.72345e-07
2.87233e-06
2.51602e-07
2.86512e-06
1.83994e-07
2.85965e-06
1.07008e-07
2.85326e-06
1.07134e-07
2.84931e-06
1.55077e-07
2.84846e-06
1.78074e-07
2.85029e-06
2.18482e-07
2.53478e-07
2.85294e-06
2.97781e-06
5.82057e-08
2.98797e-06
2.87491e-08
2.93556e-06
-1.33995e-06
2.96612e-06
6.2014e-07
2.97671e-06
6.20407e-07
2.9719e-06
6.95414e-08
2.96083e-06
-7.74705e-08
2.97735e-06
5.63215e-07
2.98512e-06
5.92438e-07
3.00095e-06
6.04852e-07
3.00945e-06
6.36114e-07
3.00824e-06
3.7356e-07
3.00937e-06
2.50468e-07
3.00264e-06
1.90724e-07
2.99665e-06
1.13002e-07
2.99095e-06
1.12831e-07
2.98671e-06
1.59317e-07
2.9858e-06
1.78987e-07
2.98827e-06
2.16005e-07
2.51143e-07
2.99061e-06
3.12012e-06
5.30902e-08
3.12911e-06
1.9764e-08
3.07695e-06
-1.2878e-06
3.10842e-06
5.88668e-07
3.12e-06
6.08829e-07
3.11479e-06
7.47569e-08
3.10315e-06
-6.58351e-08
3.1182e-06
5.4817e-07
3.12564e-06
5.8499e-07
3.14201e-06
5.88484e-07
3.15192e-06
6.26211e-07
3.15104e-06
3.74433e-07
3.15282e-06
2.48694e-07
3.1467e-06
1.9684e-07
3.14011e-06
1.19591e-07
3.13493e-06
1.18017e-07
3.13042e-06
1.63821e-07
3.12907e-06
1.80334e-07
3.13205e-06
2.13026e-07
2.48916e-07
3.13428e-06
3.26943e-06
4.75749e-08
3.27699e-06
1.21958e-08
3.22526e-06
-1.23606e-06
3.25755e-06
5.56375e-07
3.27019e-06
5.96189e-07
3.26434e-06
8.06091e-08
3.25225e-06
-5.37441e-08
3.26612e-06
5.34295e-07
3.27332e-06
5.77797e-07
3.29022e-06
5.71579e-07
3.30128e-06
6.1515e-07
3.30068e-06
3.75038e-07
3.30294e-06
2.46433e-07
3.29754e-06
2.02239e-07
3.29033e-06
1.26802e-07
3.28553e-06
1.22822e-07
3.28089e-06
1.68461e-07
3.27887e-06
1.82347e-07
3.28214e-06
2.09758e-07
2.46456e-07
3.2846e-06
3.42596e-06
4.15479e-08
3.432e-06
6.15621e-09
3.38092e-06
-1.18499e-06
3.41373e-06
5.23566e-07
3.42739e-06
5.82528e-07
3.42088e-06
8.71169e-08
3.40853e-06
-4.13888e-08
3.4216e-06
5.21224e-07
3.42855e-06
5.70843e-07
3.44596e-06
5.54173e-07
3.45797e-06
6.03139e-07
3.45746e-06
3.75545e-07
3.46004e-06
2.43856e-07
3.45543e-06
2.06846e-07
3.44762e-06
1.34612e-07
3.4431e-06
1.27342e-07
3.43853e-06
1.73028e-07
3.43578e-06
1.851e-07
3.43904e-06
2.06499e-07
2.4338e-07
3.44212e-06
3.58998e-06
3.49746e-08
3.59447e-06
1.66648e-09
3.54431e-06
-1.13483e-06
3.57727e-06
4.90612e-07
3.59183e-06
5.67964e-07
3.58479e-06
9.41577e-08
3.57237e-06
-2.89658e-08
3.58501e-06
5.08579e-07
3.5917e-06
5.64158e-07
3.60952e-06
5.36353e-07
3.62235e-06
5.90307e-07
3.62172e-06
3.76174e-07
3.62444e-06
2.41134e-07
3.62067e-06
2.10615e-07
3.61232e-06
1.42963e-07
3.608e-06
1.3166e-07
3.60378e-06
1.77257e-07
3.60034e-06
1.88538e-07
3.60326e-06
2.03579e-07
2.39387e-07
3.60725e-06
3.7618e-06
2.78801e-08
3.76479e-06
-1.32048e-09
3.71576e-06
-1.0858e-06
3.74852e-06
4.57848e-07
3.76385e-06
5.52635e-07
3.75647e-06
1.0154e-07
3.74412e-06
-1.66165e-08
3.75669e-06
4.96012e-07
3.76306e-06
5.57784e-07
3.78115e-06
5.18269e-07
3.79477e-06
5.76679e-07
3.79381e-06
3.7714e-07
3.79651e-06
2.38437e-07
3.7936e-06
2.13522e-07
3.7848e-06
1.51766e-07
3.78058e-06
1.35878e-07
3.77695e-06
1.80882e-07
3.77302e-06
1.92469e-07
3.77525e-06
2.01355e-07
2.34382e-07
3.78025e-06
3.94174e-06
2.03299e-08
3.94333e-06
-2.91563e-09
3.89556e-06
-1.03802e-06
3.92787e-06
4.25536e-07
3.94387e-06
5.36637e-07
3.93635e-06
1.09056e-07
3.92413e-06
-4.39405e-09
3.9369e-06
4.83243e-07
3.94296e-06
5.51723e-07
3.96109e-06
5.00139e-07
3.97558e-06
5.62189e-07
3.97412e-06
3.78602e-07
3.9766e-06
2.3595e-07
3.97459e-06
2.1554e-07
3.96544e-06
1.60916e-07
3.96118e-06
1.40134e-07
3.95836e-06
1.83701e-07
3.95424e-06
1.96588e-07
3.95545e-06
2.00146e-07
2.28513e-07
3.96132e-06
4.13017e-06
1.24066e-08
4.13052e-06
-3.26408e-09
4.08403e-06
-9.9153e-07
4.11569e-06
3.93872e-07
4.13231e-06
5.20019e-07
4.12487e-06
1.16499e-07
4.11274e-06
7.73525e-09
4.12591e-06
4.70072e-07
4.13172e-06
5.45909e-07
4.14962e-06
4.82245e-07
4.16509e-06
5.46718e-07
4.16308e-06
3.80611e-07
4.16511e-06
2.33917e-07
4.16404e-06
2.16612e-07
4.15465e-06
1.70304e-07
4.15019e-06
1.44592e-07
4.14827e-06
1.85623e-07
4.14433e-06
2.00531e-07
4.14439e-06
2.00086e-07
2.22279e-07
4.15062e-06
4.32752e-06
4.19128e-09
4.32678e-06
-2.52941e-09
4.28152e-06
-9.46269e-07
4.31239e-06
3.63006e-07
4.32962e-06
5.02789e-07
4.32244e-06
1.23672e-07
4.31032e-06
1.98604e-08
4.32402e-06
4.56375e-07
4.32972e-06
5.40206e-07
4.34706e-06
4.64901e-07
4.36363e-06
5.30154e-07
4.36116e-06
3.83081e-07
4.36244e-06
2.32638e-07
4.36237e-06
2.16677e-07
4.35287e-06
1.7981e-07
4.34797e-06
1.49487e-07
4.34698e-06
1.8662e-07
4.34357e-06
2.03936e-07
4.34258e-06
2.0108e-07
2.16374e-07
4.34848e-06
4.53421e-06
-4.24698e-09
4.53256e-06
-8.77411e-10
4.48844e-06
-9.02144e-07
4.5184e-06
3.33044e-07
4.53621e-06
4.84979e-07
4.52951e-06
1.30368e-07
4.51728e-06
3.20938e-08
4.53155e-06
4.42106e-07
4.53736e-06
5.34397e-07
4.55383e-06
4.48423e-07
4.57155e-06
5.12443e-07
4.56883e-06
3.85792e-07
4.56903e-06
2.32438e-07
4.56999e-06
2.15724e-07
4.56059e-06
1.89204e-07
4.55493e-06
1.55147e-07
4.55476e-06
1.86791e-07
4.55224e-06
2.06461e-07
4.55052e-06
2.02798e-07
2.11428e-07
4.55546e-06
4.75072e-06
-1.28501e-08
4.74831e-06
1.53438e-09
4.7052e-06
-8.59036e-07
4.73421e-06
3.04029e-07
4.75251e-06
4.66682e-07
4.7465e-06
1.36378e-07
4.73407e-06
4.45199e-08
4.74888e-06
4.27303e-07
4.75506e-06
5.28208e-07
4.7704e-06
4.33091e-07
4.78921e-06
4.93634e-07
4.7866e-06
3.88396e-07
4.7854e-06
2.33643e-07
4.78732e-06
2.138e-07
4.77833e-06
1.98191e-07
4.77165e-06
1.61831e-07
4.77204e-06
1.86398e-07
4.77065e-06
2.07856e-07
4.76868e-06
2.04764e-07
2.07801e-07
4.77231e-06
4.97751e-06
-2.15618e-08
4.97449e-06
4.55382e-09
4.93224e-06
-8.1679e-07
4.96039e-06
2.75888e-07
4.97897e-06
4.48094e-07
4.97386e-06
1.41497e-07
4.96124e-06
5.71338e-08
4.97642e-06
4.12126e-07
4.98329e-06
5.21339e-07
4.99727e-06
4.19104e-07
5.01701e-06
4.73897e-07
5.01494e-06
3.90468e-07
5.01208e-06
2.36499e-07
5.01482e-06
2.11065e-07
5.00665e-06
2.0636e-07
4.9988e-06
1.69675e-07
4.99942e-06
1.85778e-07
4.99926e-06
2.08021e-07
4.9974e-06
2.06626e-07
2.05426e-07
4.99977e-06
5.21507e-06
-3.03123e-08
5.21161e-06
8.01378e-09
5.17001e-06
-7.75191e-07
5.19748e-06
2.48415e-07
5.21611e-06
4.29465e-07
5.21205e-06
1.4556e-07
5.19937e-06
6.98051e-08
5.21465e-06
3.96854e-07
5.22246e-06
5.13524e-07
5.23502e-06
4.06548e-07
5.25543e-06
4.53487e-07
5.25429e-06
3.91609e-07
5.24968e-06
2.41106e-07
5.25297e-06
2.0778e-07
5.24604e-06
2.13283e-07
5.23712e-06
1.78598e-07
5.2375e-06
1.85402e-07
5.23857e-06
2.06944e-07
5.23703e-06
2.08166e-07
2.0396e-07
5.2385e-06
5.46388e-06
-3.90067e-08
5.46019e-06
1.17096e-08
5.41892e-06
-7.33921e-07
5.44609e-06
2.21243e-07
5.46445e-06
4.11107e-07
5.46158e-06
1.48432e-07
5.44907e-06
8.23118e-08
5.4641e-06
3.81823e-07
5.47304e-06
5.04587e-07
5.48419e-06
3.9539e-07
5.50497e-06
4.32715e-07
5.50509e-06
3.91485e-07
5.49884e-06
2.47354e-07
5.50224e-06
2.04384e-07
5.49705e-06
2.18474e-07
5.48732e-06
1.88326e-07
5.48686e-06
1.85859e-07
5.48906e-06
2.04742e-07
5.48816e-06
2.0907e-07
2.0319e-07
5.48893e-06
5.72447e-06
-4.75188e-08
5.72081e-06
1.53712e-08
5.67943e-06
-6.92543e-07
5.70681e-06
1.93863e-07
5.72455e-06
3.93365e-07
5.72293e-06
1.50055e-07
5.71092e-06
9.43268e-08
5.72536e-06
3.67379e-07
5.73547e-06
4.94477e-07
5.74537e-06
3.85491e-07
5.76615e-06
4.11932e-07
5.76783e-06
3.89804e-07
5.76018e-06
2.55011e-07
5.76314e-06
2.01417e-07
5.76009e-06
2.21531e-07
5.75003e-06
1.98384e-07
5.74816e-06
1.87734e-07
5.75125e-06
2.01645e-07
5.75128e-06
2.09044e-07
2.02905e-07
5.75156e-06
5.99737e-06
-5.56927e-08
5.99408e-06
1.86544e-08
5.95209e-06
-6.50551e-07
5.98026e-06
1.65694e-07
5.99704e-06
3.76583e-07
5.99654e-06
1.50556e-07
5.98548e-06
1.0539e-07
5.99906e-06
3.53795e-07
6.01027e-06
4.83267e-07
6.01912e-06
3.76642e-07
6.03956e-06
3.91489e-07
6.04303e-06
3.86335e-07
6.03431e-06
2.63734e-07
6.03628e-06
1.99442e-07
6.03557e-06
2.22247e-07
6.02584e-06
2.08111e-07
6.02216e-06
1.91411e-07
6.02565e-06
1.9816e-07
6.02688e-06
2.07808e-07
2.02827e-07
6.02696e-06
6.28315e-06
-6.33524e-08
6.28065e-06
2.11519e-08
6.23759e-06
-6.07489e-07
6.26702e-06
1.36263e-07
6.28266e-06
3.60943e-07
6.28286e-06
1.50351e-07
6.27328e-06
1.14972e-07
6.28587e-06
3.41202e-07
6.298e-06
4.71144e-07
6.30601e-06
3.68626e-07
6.32581e-06
3.71697e-07
6.33122e-06
3.80922e-07
6.32182e-06
2.73136e-07
6.3224e-06
1.98863e-07
6.3239e-06
2.20746e-07
6.31523e-06
2.16777e-07
6.30977e-06
1.96878e-07
6.31283e-06
1.95097e-07
6.31547e-06
2.05169e-07
2.02548e-07
6.31575e-06
6.58243e-06
-7.03087e-08
6.58118e-06
2.23985e-08
6.53683e-06
-5.63142e-07
6.56753e-06
1.0556e-07
6.58221e-06
3.46264e-07
6.58248e-06
1.50088e-07
6.57482e-06
1.22626e-07
6.5865e-06
3.29523e-07
6.59925e-06
4.58394e-07
6.60662e-06
3.61254e-07
6.62551e-06
3.52808e-07
6.63292e-06
3.73511e-07
6.62337e-06
2.82693e-07
6.62217e-06
2.00059e-07
6.6255e-06
2.17417e-07
6.61865e-06
2.23625e-07
6.61174e-06
2.03793e-07
6.61361e-06
1.93221e-07
6.61749e-06
2.01286e-07
2.01568e-07
6.61847e-06
6.89585e-06
-7.6372e-08
6.89634e-06
2.19091e-08
6.85071e-06
-5.17513e-07
6.88219e-06
7.40863e-08
6.89648e-06
3.31971e-07
6.8961e-06
1.50466e-07
6.89058e-06
1.28152e-07
6.90164e-06
3.1846e-07
6.91472e-06
4.45317e-07
6.92157e-06
3.54404e-07
6.93933e-06
3.35047e-07
6.94871e-06
3.6413e-07
6.93957e-06
2.91828e-07
6.93637e-06
2.0326e-07
6.94084e-06
2.12945e-07
6.93647e-06
2.27997e-07
6.92877e-06
2.11498e-07
6.9289e-06
1.93083e-07
6.9335e-06
1.96695e-07
1.99408e-07
6.93566e-06
7.22413e-06
-8.13633e-08
7.22683e-06
1.92115e-08
7.18005e-06
-4.70738e-07
7.21136e-06
4.27728e-08
7.22619e-06
3.17143e-07
7.22459e-06
1.52067e-07
7.22107e-06
1.31674e-07
7.23195e-06
3.07577e-07
7.24513e-06
4.32139e-07
7.25151e-06
3.48029e-07
7.26794e-06
3.18609e-07
7.27913e-06
3.5294e-07
7.27107e-06
2.99892e-07
7.2658e-06
2.08524e-07
7.27057e-06
2.08177e-07
7.26911e-06
2.29464e-07
7.26141e-06
2.19189e-07
7.25965e-06
1.9485e-07
7.26415e-06
1.92191e-07
1.95809e-07
7.26775e-06
7.56799e-06
-8.51286e-08
7.57331e-06
1.38922e-08
7.52567e-06
-4.23099e-07
7.55555e-06
1.28928e-08
7.57203e-06
3.0066e-07
7.56884e-06
1.55265e-07
7.56692e-06
1.33592e-07
7.5781e-06
2.96397e-07
7.59125e-06
4.18988e-07
7.59713e-06
3.42149e-07
7.61208e-06
3.03657e-07
7.62482e-06
3.40199e-07
7.61841e-06
3.06308e-07
7.61127e-06
2.15662e-07
7.61547e-06
2.03971e-07
7.61698e-06
2.27953e-07
7.61017e-06
2.26002e-07
7.60669e-06
1.98328e-07
7.61036e-06
1.88529e-07
1.9093e-07
7.61523e-06
7.92823e-06
-8.7552e-08
7.93643e-06
5.70129e-09
7.88841e-06
-3.75079e-07
7.91536e-06
-1.40663e-08
7.93461e-06
2.81415e-07
7.92982e-06
1.60057e-07
7.92883e-06
1.34584e-07
7.94068e-06
2.84545e-07
7.95384e-06
4.05825e-07
7.95917e-06
3.36824e-07
7.97246e-06
2.90364e-07
7.98645e-06
3.26213e-07
7.98206e-06
3.1069e-07
7.97361e-06
2.24113e-07
7.97644e-06
2.01147e-07
7.98049e-06
2.23904e-07
7.97552e-06
2.30971e-07
7.97082e-06
2.03027e-07
7.97306e-06
1.86286e-07
1.85287e-07
7.9787e-06
8.3057e-06
-8.85681e-08
8.3165e-06
-5.09975e-09
8.26909e-06
-3.27671e-07
8.29156e-06
-3.65336e-08
8.31446e-06
2.58513e-07
8.30855e-06
1.65964e-07
8.30757e-06
1.3557e-07
8.32028e-06
2.71828e-07
8.33365e-06
3.92463e-07
8.3384e-06
3.32072e-07
8.34985e-06
2.78913e-07
8.36461e-06
3.1145e-07
8.36251e-06
3.1279e-07
8.35346e-06
2.33167e-07
8.35442e-06
2.00186e-07
8.36023e-06
2.18097e-07
8.35782e-06
2.33374e-07
8.35273e-06
2.08121e-07
8.35328e-06
1.85735e-07
1.79655e-07
8.35891e-06
8.70128e-06
-8.81823e-08
8.71414e-06
-1.79613e-08
8.66852e-06
-2.82054e-07
8.68512e-06
-5.31358e-08
8.71197e-06
2.3167e-07
8.7059e-06
1.72034e-07
8.70405e-06
1.3742e-07
8.71753e-06
2.58344e-07
8.73129e-06
3.78702e-07
8.73555e-06
3.27811e-07
8.74492e-06
2.69551e-07
8.75984e-06
2.9652e-07
8.76025e-06
3.1238e-07
8.7514e-06
2.42027e-07
8.75045e-06
2.01127e-07
8.75705e-06
2.11504e-07
8.75748e-06
2.32941e-07
8.75297e-06
2.12633e-07
8.75205e-06
1.86655e-07
1.74876e-07
8.75683e-06
9.11591e-06
-8.64718e-08
9.1302e-06
-3.22483e-08
9.0875e-06
-2.39361e-07
9.09744e-06
-6.30754e-08
9.12753e-06
2.01582e-07
9.12267e-06
1.76896e-07
9.11924e-06
1.40851e-07
9.13298e-06
2.44599e-07
9.14733e-06
3.64357e-07
9.15123e-06
3.23906e-07
9.15818e-06
2.62601e-07
9.17284e-06
2.81864e-07
9.17585e-06
3.09368e-07
9.16811e-06
2.4977e-07
9.16556e-06
2.03676e-07
9.17199e-06
2.05065e-07
9.17519e-06
2.29749e-07
9.172e-06
2.15824e-07
9.17022e-06
1.88431e-07
1.71481e-07
9.17361e-06
9.55058e-06
-8.35888e-08
9.5656e-06
-4.72723e-08
9.52687e-06
-2.00626e-07
9.53026e-06
-6.64739e-08
9.56178e-06
1.70062e-07
9.55961e-06
1.79067e-07
9.55416e-06
1.46308e-07
9.56725e-06
2.31503e-07
9.58229e-06
3.49322e-07
9.58621e-06
3.19986e-07
9.59075e-06
2.58059e-07
9.60474e-06
2.67872e-07
9.61027e-06
3.03844e-07
9.60439e-06
2.55644e-07
9.60078e-06
2.07283e-07
9.60634e-06
1.99506e-07
9.61181e-06
2.2428e-07
9.61045e-06
2.17183e-07
9.6085e-06
1.90389e-07
1.69475e-07
9.6105e-06
1.00063e-05
-7.97675e-08
1.00213e-05
-6.22722e-08
9.98754e-06
-1.66849e-07
9.98482e-06
-6.3758e-08
1.00157e-05
1.39226e-07
1.00172e-05
1.77479e-07
1.00097e-05
1.53839e-07
1.00213e-05
2.1993e-07
1.00371e-05
3.33477e-07
1.00418e-05
3.15343e-07
1.00444e-05
2.55458e-07
1.00572e-05
2.55081e-07
1.00649e-05
2.96159e-07
1.00613e-05
2.59244e-07
1.00572e-05
2.11346e-07
1.00614e-05
1.95265e-07
1.00685e-05
2.17253e-07
1.00692e-05
2.1646e-07
1.00675e-05
1.92049e-07
1.68414e-07
1.00686e-05
1.04842e-05
-7.5316e-08
1.04984e-05
-7.64413e-08
1.04704e-05
-1.38909e-07
1.04623e-05
-5.5607e-08
1.04902e-05
1.1128e-07
1.04963e-05
1.71427e-07
1.04875e-05
1.62625e-07
1.04965e-05
2.10864e-07
1.05132e-05
3.16847e-07
1.05192e-05
3.0927e-07
1.05205e-05
2.54199e-07
1.05313e-05
2.44278e-07
1.05408e-05
2.86621e-07
1.05396e-05
2.60498e-07
1.05358e-05
2.15175e-07
1.05386e-05
1.92446e-07
1.05463e-05
2.09554e-07
1.05492e-05
2.13572e-07
1.05481e-05
1.93112e-07
1.67764e-07
1.05488e-05
1.09853e-05
-7.05817e-08
1.09978e-05
-8.8992e-08
1.09764e-05
-1.17509e-07
1.09638e-05
-4.29305e-08
1.09871e-05
8.79049e-08
1.09978e-05
1.60715e-07
1.09893e-05
1.71171e-07
1.09949e-05
2.05312e-07
1.10116e-05
3.0014e-07
1.10196e-05
3.01212e-07
1.10203e-05
2.53543e-07
1.10289e-05
2.35687e-07
1.10394e-05
2.76036e-07
1.10405e-05
2.59452e-07
1.10374e-05
2.18288e-07
1.1039e-05
1.90817e-07
1.10466e-05
2.02007e-07
1.10515e-05
2.08675e-07
1.10513e-05
1.93261e-07
1.67245e-07
1.10518e-05
1.15107e-05
-6.59448e-08
1.15209e-05
-9.91488e-08
1.1506e-05
-1.02641e-07
1.14904e-05
-2.73385e-08
1.15081e-05
7.02567e-08
1.15227e-05
1.46119e-07
1.15163e-05
1.77583e-07
1.15181e-05
2.03423e-07
1.15336e-05
2.84665e-07
1.15435e-05
2.91318e-07
1.15446e-05
2.52426e-07
1.15513e-05
2.29058e-07
1.1562e-05
2.65321e-07
1.15651e-05
2.56374e-07
1.1563e-05
2.20381e-07
1.15639e-05
1.89914e-07
1.15707e-05
1.95214e-07
1.15771e-05
2.02222e-07
1.15783e-05
1.92089e-07
1.66789e-07
1.15787e-05
1.20616e-05
-6.17709e-08
1.20687e-05
-1.0624e-07
1.20598e-05
-9.37457e-08
1.20433e-05
-1.07942e-08
1.20546e-05
5.89727e-08
1.20715e-05
1.29199e-07
1.20691e-05
1.79941e-07
1.20681e-05
2.04503e-07
1.20808e-05
2.71894e-07
1.2092e-05
2.8017e-07
1.20943e-05
2.50078e-07
1.20995e-05
2.23882e-07
1.21098e-05
2.55045e-07
1.21145e-05
2.51674e-07
1.21136e-05
2.21286e-07
1.21142e-05
1.89317e-07
1.212e-05
1.89388e-07
1.21273e-05
1.94911e-07
1.21301e-05
1.89315e-07
1.66166e-07
1.21307e-05
1.26392e-05
-5.83705e-08
1.26428e-05
-1.09849e-07
1.26389e-05
-8.98816e-08
1.26234e-05
4.75735e-09
1.26284e-05
5.3963e-08
1.26456e-05
1.11967e-07
1.26483e-05
1.77269e-07
1.26457e-05
2.07058e-07
1.26549e-05
2.62692e-07
1.26664e-05
2.68747e-07
1.26702e-05
2.46292e-07
1.26747e-05
2.1938e-07
1.26842e-05
2.45532e-07
1.26901e-05
2.45756e-07
1.26904e-05
2.20971e-07
1.2691e-05
1.8867e-07
1.2696e-05
1.84435e-07
1.27035e-05
1.87406e-07
1.27078e-05
1.85021e-07
1.64946e-07
1.2709e-05
1.32445e-05
-5.59567e-08
1.32446e-05
-1.09921e-07
1.32445e-05
-8.98195e-08
1.32316e-05
1.76723e-08
1.32311e-05
5.44771e-08
1.32465e-05
9.65921e-08
1.32541e-05
1.6964e-07
1.32519e-05
2.09248e-07
1.32576e-05
2.57003e-07
1.32682e-05
2.58193e-07
1.32732e-05
2.41213e-07
1.32777e-05
2.14889e-07
1.32865e-05
2.36783e-07
1.32932e-05
2.39026e-07
1.32947e-05
2.195e-07
1.32956e-05
1.87716e-07
1.32999e-05
1.80171e-07
1.33072e-05
1.80129e-07
1.33126e-05
1.79583e-07
1.62722e-07
1.33148e-05
1.38788e-05
-5.4612e-08
1.38757e-05
-1.06823e-07
1.3878e-05
-9.20679e-08
1.3869e-05
2.66608e-08
1.38641e-05
5.93785e-08
1.38757e-05
8.49237e-08
1.38872e-05
1.58163e-07
1.38872e-05
2.09309e-07
1.38901e-05
2.5407e-07
1.3899e-05
2.4929e-07
1.3905e-05
2.35222e-07
1.39098e-05
2.10071e-07
1.39181e-05
2.28512e-07
1.39253e-05
2.31802e-07
1.39278e-05
2.17017e-07
1.39292e-05
1.86302e-07
1.3933e-05
1.76365e-07
1.39399e-05
1.73251e-07
1.3946e-05
1.7348e-07
1.59343e-07
1.39494e-05
1.45434e-05
-5.43753e-08
1.45374e-05
-1.0076e-07
1.45403e-05
-9.49582e-08
1.45362e-05
3.07498e-08
1.45286e-05
6.69401e-08
1.45352e-05
7.83176e-08
1.45486e-05
1.44821e-07
1.45521e-05
2.05787e-07
1.45536e-05
2.52571e-07
1.45606e-05
2.42238e-07
1.45669e-05
2.2899e-07
1.45721e-05
2.04821e-07
1.45802e-05
2.20448e-07
1.45878e-05
2.24172e-07
1.45911e-05
2.13693e-07
1.4593e-05
1.84402e-07
1.45966e-05
1.72771e-07
1.46031e-05
1.66789e-07
1.46095e-05
1.67099e-07
1.54958e-07
1.46138e-05
1.52394e-05
-5.48824e-08
1.52286e-05
-9.00137e-08
1.52329e-05
-9.92438e-08
1.52348e-05
2.88974e-08
1.52257e-05
7.59767e-08
1.52261e-05
7.80035e-08
1.52391e-05
1.31734e-07
1.52473e-05
1.97622e-07
1.52493e-05
2.50536e-07
1.52546e-05
2.36964e-07
1.52605e-05
2.23107e-07
1.52661e-05
1.99184e-07
1.52741e-05
2.12502e-07
1.52822e-05
2.1609e-07
1.52862e-05
2.09617e-07
1.52886e-05
1.82017e-07
1.52921e-05
1.69282e-07
1.52982e-05
1.60681e-07
1.53046e-05
1.60679e-07
1.49883e-07
1.53097e-05
1.59692e-05
-5.6756e-08
1.59673e-05
-8.81214e-08
1.59702e-05
-1.02099e-07
1.59688e-05
3.02161e-08
1.59549e-05
8.9896e-08
1.59501e-05
8.28764e-08
1.59611e-05
1.20696e-07
1.5974e-05
1.84693e-07
1.59785e-05
2.46027e-07
1.59824e-05
2.33131e-07
1.59875e-05
2.17952e-07
1.59933e-05
1.93421e-07
1.60012e-05
2.04588e-07
1.60097e-05
2.07576e-07
1.60146e-05
2.04695e-07
1.60175e-05
1.79178e-07
1.60209e-05
1.65834e-07
1.60267e-05
1.54888e-07
1.60332e-05
1.54222e-07
1.44461e-07
1.60386e-05
1.67316e-05
-5.77479e-08
1.67144e-05
-7.09382e-08
1.67134e-05
-1.01136e-07
1.67228e-05
2.08734e-08
1.67178e-05
9.48954e-08
1.67113e-05
8.93421e-08
1.67184e-05
1.13628e-07
1.67339e-05
1.6914e-07
1.67423e-05
2.37715e-07
1.67458e-05
2.29555e-07
1.67499e-05
2.13866e-07
1.67555e-05
1.87842e-07
1.67634e-05
1.96669e-07
1.67722e-05
1.98776e-07
1.6778e-05
1.98907e-07
1.67814e-05
1.75762e-07
1.67848e-05
1.62441e-07
1.67902e-05
1.49454e-07
1.67967e-05
1.47764e-07
1.38827e-07
1.68023e-05
1.75319e-05
-5.92979e-08
1.75238e-05
-6.2871e-08
1.75161e-05
-9.34165e-08
1.75204e-05
1.65877e-08
1.75178e-05
9.74604e-08
1.75109e-05
9.62452e-08
1.75139e-05
1.10638e-07
1.75294e-05
1.53707e-07
1.75412e-05
2.25831e-07
1.7546e-05
2.24831e-07
1.75492e-05
2.1066e-07
1.75542e-05
1.82781e-07
1.7562e-05
1.88948e-07
1.75711e-05
1.89649e-07
1.75776e-05
1.92353e-07
1.75818e-05
1.71639e-07
1.75853e-05
1.58881e-07
1.75903e-05
1.44471e-07
1.75967e-05
1.41398e-07
1.32959e-07
1.76025e-05
1.83686e-05
-5.95646e-08
1.83567e-05
-5.09214e-08
1.83484e-05
-8.51735e-08
1.83556e-05
9.42301e-09
1.83565e-05
9.65275e-08
1.83502e-05
1.0254e-07
1.83499e-05
1.1101e-07
1.8363e-05
1.40573e-07
1.83775e-05
2.11329e-07
1.83842e-05
2.18151e-07
1.83871e-05
2.07716e-07
1.83916e-05
1.78321e-07
1.83988e-05
1.81734e-07
1.84081e-05
1.80315e-07
1.84155e-05
1.85013e-07
1.84202e-05
1.66855e-07
1.84242e-05
1.54915e-07
1.84288e-05
1.39847e-07
1.84349e-05
1.35348e-07
1.26855e-07
1.8441e-05
1.92464e-05
-5.96039e-08
1.9238e-05
-4.2497e-08
1.92259e-05
-7.30733e-08
1.9231e-05
4.33806e-09
1.92346e-05
9.28803e-08
1.923e-05
1.07182e-07
1.92276e-05
1.13408e-07
1.92373e-05
1.30872e-07
1.92529e-05
1.95686e-07
1.92618e-05
2.09269e-07
1.92652e-05
2.04297e-07
1.92692e-05
1.74329e-07
1.92758e-05
1.75183e-07
1.92849e-05