/*--------------------------------*- C++ -*----------------------------------*\
| =========                 |                                                 |
| \\      /  F ield         | OpenFOAM: The Open Source CFD Toolbox           |
|  \\    /   O peration     | Version:  2506                                  |
|   \\  /    A nd           | Website:  www.openfoam.com                      |
|    \\/     M anipulation  |                                                 |
\*---------------------------------------------------------------------------*/
FoamFile
{
    version     2.0;
    format      ascii;
    arch        "LSB;label=32;scalar=64";
    class       volVectorField;
    location    "9.2";
    object      U;
}
// * * * * * * * * * * * * * * * * * * * * * * * * * * * * * * * * * * * * * //

dimensions      [0 1 -1 0 0 0 0];

internalField   nonuniform List<vector> 
9600
(
(0.695044 -0.000244701 0)
(1.26072 -0.0030327 0)
(0.727344 -0.00308938 0)
(1.48057 0.017658 0)
(0.49538 -0.0109234 0)
(1.22829 0.00169949 0)
(0.798666 0.000721347 0)
(1.22498 0.0178416 0)
(0.765687 0.0148905 0)
(1.25049 0.0180984 0)
(0.7606 0.0131871 0)
(1.22142 0.00951716 0)
(0.78534 -0.00174829 0)
(1.16662 0.00253721 0)
(0.841442 -0.00252943 0)
(1.15835 0.000378646 0)
(0.848785 0.00422547 0)
(1.15602 0.00738369 0)
(0.851438 0.00913097 0)
(1.13764 0.0123406 0)
(0.703047 -6.92928e-05 0)
(1.25361 -0.00295355 0)
(0.728356 -0.0056875 0)
(1.47499 0.019528 0)
(0.535575 -0.00883732 0)
(1.22442 -0.00112659 0)
(0.808398 3.98659e-05 0)
(1.22244 0.0184811 0)
(0.780209 0.0143814 0)
(1.2384 0.01842 0)
(0.791973 0.0130991 0)
(1.19654 0.00951378 0)
(0.839372 -0.00105865 0)
(1.13279 0.00182687 0)
(0.899729 -0.00262413 0)
(1.11269 0.000274565 0)
(0.920036 0.00453666 0)
(1.08318 0.00663544 0)
(0.954587 0.0109166 0)
(1.02114 0.010362 0)
(0.720473 7.43486e-05 0)
(1.23785 -0.00289601 0)
(0.732885 -0.00765574 0)
(1.46302 0.0218613 0)
(0.606375 -0.00713041 0)
(1.21016 -0.00315202 0)
(0.833543 -0.000309598 0)
(1.21047 0.0192788 0)
(0.820615 0.0137809 0)
(1.20816 0.0187274 0)
(0.857151 0.0133452 0)
(1.15281 0.00914107 0)
(0.918582 -0.000223264 0)
(1.08377 0.000912733 0)
(0.967954 -0.00230351 0)
(1.06298 -6.87628e-05 0)
(0.983362 0.00502367 0)
(1.03605 0.00624912 0)
(1.00082 0.0118796 0)
(1.00195 0.0106489 0)
(0.74873 0.000212193 0)
(1.21153 -0.00268679 0)
(0.743448 -0.00968173 0)
(1.44091 0.0231781 0)
(0.704234 -0.00528058 0)
(1.17842 -0.00474443 0)
(0.874389 -0.000577223 0)
(1.18529 0.0196327 0)
(0.882054 0.0135993 0)
(1.16331 0.0185485 0)
(0.932891 0.0139005 0)
(1.10773 0.00840904 0)
(0.983745 0.000773235 0)
(1.04714 0.000277384 0)
(1.00725 -0.00198522 0)
(1.03705 -0.000301871 0)
(1.01115 0.0054578 0)
(1.02436 0.00621756 0)
(1.01322 0.012337 0)
(1.00814 0.0115905 0)
(0.787572 0.000369067 0)
(1.17467 -0.00235622 0)
(0.763292 -0.0118604 0)
(1.40463 0.0235413 0)
(0.816167 -0.00301007 0)
(1.13116 -0.00589726 0)
(0.92123 -0.000974235 0)
(1.14991 0.0195417 0)
(0.946977 0.0138356 0)
(1.11735 0.0180004 0)
(0.99378 0.0144695 0)
(1.07626 0.00781232 0)
(1.01969 0.0017302 0)
(1.0302 0.000103821 0)
(1.01919 -0.00184222 0)
(1.02648 -0.000403776 0)
(1.01897 0.00569683 0)
(1.02334 0.00627831 0)
(1.01839 0.012673 0)
(1.01372 0.0124441 0)
(0.833877 0.00054598 0)
(1.13069 -0.001932 0)
(0.793748 -0.0140653 0)
(1.3526 0.0230911 0)
(0.920921 -0.000444314 0)
(1.07998 -0.0065295 0)
(0.960347 -0.0014702 0)
(1.11291 0.019173 0)
(0.998839 0.0142577 0)
(1.08327 0.017446 0)
(1.03038 0.0148694 0)
(1.05991 0.00760454 0)
(1.03322 0.00252715 0)
(1.02438 0.000303949 0)
(1.01839 -0.0016849 0)
(1.01862 -0.000505999 0)
(1.01817 0.00571986 0)
(1.02185 0.00635236 0)
(1.02044 0.0128534 0)
(1.0174 0.0131169 0)
(0.881801 0.000740263 0)
(1.08627 -0.00143982 0)
(0.831905 -0.0161628 0)
(1.288 0.021886 0)
(1.00039 0.00219161 0)
(1.03869 -0.00654421 0)
(0.983082 -0.00207406 0)
(1.08157 0.0186006 0)
(1.03113 0.01466 0)
(1.06453 0.0170846 0)
(1.04702 0.015105 0)
(1.05225 0.00771874 0)
(1.03551 0.0032306 0)
(1.02175 0.000724795 0)
(1.01419 -0.00139055 0)
(1.01041 -0.000622692 0)
(1.01277 0.00556991 0)
(1.0176 0.00636405 0)
(1.01894 0.0127823 0)
(1.01816 0.0136344 0)
(0.924627 0.000939087 0)
(1.04913 -0.000929174 0)
(0.87135 -0.0179969 0)
(1.21806 0.0201645 0)
(1.04781 0.00470094 0)
(1.01477 -0.00598894 0)
(0.989817 -0.00273613 0)
(1.05726 0.0178311 0)
(1.0454 0.0149099 0)
(1.05603 0.0169088 0)
(1.05153 0.0152704 0)
(1.04734 0.00801299 0)
(1.03345 0.00390908 0)
(1.01946 0.00125853 0)
(1.01017 -0.000954142 0)
(1.00323 -0.00065197 0)
(1.00556 0.00532171 0)
(1.01109 0.00625901 0)
(1.01441 0.0124872 0)
(1.0157 0.0140162 0)
(0.957372 0.00111572 0)
(1.02455 -0.000440623 0)
(0.905808 -0.0194479 0)
(1.15121 0.0182819 0)
(1.06704 0.00678978 0)
(1.00682 -0.0050413 0)
(0.987274 -0.00331858 0)
(1.03733 0.0168955 0)
(1.04608 0.0149411 0)
(1.05057 0.016818 0)
(1.04937 0.015438 0)
(1.04234 0.00838477 0)
(1.02989 0.0045725 0)
(1.01722 0.00183597 0)
(1.0074 -0.000415388 0)
(0.998311 -0.000548147 0)
(0.998996 0.00504722 0)
(1.00407 0.0061018 0)
(1.00826 0.0120661 0)
(1.01105 0.0142455 0)
(0.978484 0.00123751 0)
(1.01294 -2.07224e-06 0)
(0.932252 -0.02044 0)
(1.09427 0.0165059 0)
(1.0671 0.00827312 0)
(1.00808 -0.00390542 0)
(0.982967 -0.00369098 0)
(1.01974 0.0158864 0)
(1.03808 0.0147571 0)
(1.04373 0.0167073 0)
(1.04346 0.0156103 0)
(1.03667 0.00875915 0)
(1.02601 0.0051875 0)
(1.01534 0.0023993 0)
(1.00612 0.000179119 0)
(0.995914 -0.000314173 0)
(0.994475 0.00482579 0)
(0.998242 0.00600147 0)
(1.00219 0.0115902 0)
(1.00568 0.0142945 0)
(0.989678 0.00128648 0)
(1.01048 0.000365921 0)
(0.951118 -0.0209644 0)
(1.05096 0.0149471 0)
(1.05725 0.00917192 0)
(1.01172 -0.00276378 0)
(0.981214 -0.00377391 0)
(1.00498 0.0149299 0)
(1.02645 0.0144197 0)
(1.03494 0.0165124 0)
(1.0357 0.0157443 0)
(1.03076 0.00907232 0)
(1.02243 0.00571583 0)
(1.01405 0.00291291 0)
(1.00614 0.000778911 0)
(0.995668 4.57778e-05 0)
(0.992319 0.00471519 0)
(0.994484 0.00600721 0)
(0.997418 0.0111111 0)
(1.00081 0.0141999 0)
(0.994364 0.00126592 0)
(1.01207 0.000646563 0)
(0.964517 -0.0210774 0)
(1.02157 0.0136248 0)
(1.04431 0.00960386 0)
(1.01384 -0.00175848 0)
(0.982586 -0.00360535 0)
(0.994669 0.0141211 0)
(1.01565 0.0140141 0)
(1.02603 0.0162201 0)
(1.02789 0.015808 0)
(1.0253 0.00928049 0)
(1.01947 0.00613426 0)
(1.01328 0.00335763 0)
(1.007 0.00132974 0)
(0.996909 0.000510446 0)
(0.992205 0.00472008 0)
(0.992876 0.00611766 0)
(0.994546 0.0107026 0)
(0.997247 0.0140437 0)
(0.995854 0.00119582 0)
(1.01391 0.000833679 0)
(0.974473 -0.0208781 0)
(1.00374 0.0125203 0)
(1.03202 0.00973582 0)
(1.01352 -0.00094873 0)
(0.985668 -0.00328921 0)
(0.989421 0.0134871 0)
(1.00835 0.0136134 0)
(1.01902 0.0158629 0)
(1.02147 0.0158004 0)
(1.02082 0.00937988 0)
(1.01716 0.00643882 0)
(1.01279 0.0037284 0)
(1.00815 0.00179906 0)
(0.998884 0.00103374 0)
(0.99353 0.00481402 0)
(0.993086 0.00631983 0)
(0.993653 0.0104283 0)
(0.995398 0.0138766 0)
(0.996334 0.0011011 0)
(1.01434 0.000932209 0)
(0.982193 -0.0204738 0)
(0.99396 0.0116152 0)
(1.0218 0.00969736 0)
(1.01155 -0.000332242 0)
(0.988938 -0.0029273 0)
(0.988207 0.012991 0)
(1.00493 0.0132603 0)
(1.01474 0.0154886 0)
(1.01715 0.0157449 0)
(1.01756 0.00939981 0)
(1.0154 0.00664623 0)
(1.01233 0.00403739 0)
(1.00914 0.0021807 0)
(1.00094 0.00156906 0)
(0.995629 0.00496709 0)
(0.994602 0.00658257 0)
(0.994482 0.0102921 0)
(0.995339 0.0137085 0)
(0.996792 0.00100227 0)
(1.01334 0.000953913 0)
(0.988174 -0.0199505 0)
(0.98905 0.0108852 0)
(1.01392 0.00958607 0)
(1.00911 0.00011325 0)
(0.991606 -0.00259352 0)
(0.989197 0.0125685 0)
(1.00422 0.0129642 0)
(1.01276 0.0151294 0)
(1.01478 0.0156726 0)
(1.01545 0.00938323 0)
(1.01412 0.00678219 0)
(1.01184 0.00430564 0)
(1.00978 0.00247802 0)
(1.00265 0.00207356 0)
(0.997905 0.0051506 0)
(0.996823 0.00685458 0)
(0.996502 0.0102501 0)
(0.99675 0.0135441 0)
(0.997453 0.000911396 0)
(1.01151 0.00091487 0)
(0.992595 -0.0193655 0)
(0.986781 0.0102947 0)
(1.00822 0.00946516 0)
(1.00706 0.000422927 0)
(0.993549 -0.00231948 0)
(0.990791 0.012172 0)
(1.0047 0.0127144 0)
(1.01208 0.0147952 0)
(1.01373 0.0156044 0)
(1.01424 0.00936785 0)
(1.01323 0.00686956 0)
(1.01141 0.00455251 0)
(1.0101 0.0027077 0)
(1.00389 0.00251978 0)
(0.99994 0.00533858 0)
(0.999174 0.00709037 0)
(0.999033 0.0102514 0)
(0.998993 0.013389 0)
(0.998235 0.000832951 0)
(1.00948 0.000832707 0)
(0.995611 -0.0187532 0)
(0.985879 0.00980833 0)
(1.0044 0.00934305 0)
(1.00575 0.000633915 0)
(0.994941 -0.00209737 0)
(0.992092 0.0117822 0)
(1.00522 0.0124981 0)
(1.01176 0.0144804 0)
(1.01327 0.0155367 0)
(1.01359 0.00937486 0)
(1.01267 0.00692702 0)
(1.01111 0.00479229 0)
(1.01025 0.00289528 0)
(1.00473 0.00289534 0)
(1.00154 0.00551424 0)
(1.00124 0.00726999 0)
(1.00146 0.0102587 0)
(1.00136 0.0132411 0)
(0.999004 0.000766622 0)
(1.00765 0.000724047 0)
(0.997456 -0.0181301 0)
(0.985689 0.00938564 0)
(1.00209 0.00922248 0)
(1.00517 0.000777056 0)
(0.995983 -0.00191046 0)
(0.992841 0.0113982 0)
(1.00526 0.0123036 0)
(1.01133 0.0141729 0)
(1.01288 0.0154531 0)
(1.0132 0.00940573 0)
(1.01233 0.00696355 0)
(1.01098 0.00502929 0)
(1.01037 0.0030674 0)
(1.00531 0.00320547 0)
(1.00269 0.00567247 0)
(1.00283 0.00739451 0)
(1.00343 0.0102475 0)
(1.00336 0.0130943 0)
(0.999672 0.000709915 0)
(1.00619 0.000602558 0)
(0.998412 -0.0175038 0)
(0.985879 0.0089945 0)
(1.00088 0.00909997 0)
(1.0051 0.000877469 0)
(0.996791 -0.00173853 0)
(0.993143 0.0110307 0)
(1.00478 0.0121228 0)
(1.01066 0.0138619 0)
(1.01231 0.0153408 0)
(1.01287 0.00944952 0)
(1.0121 0.0069802 0)
(1.01097 0.00525948 0)
(1.01049 0.00324406 0)
(1.00578 0.00347084 0)
(1.00349 0.00581804 0)
(1.00396 0.00747693 0)
(1.00483 0.0102086 0)
(1.00477 0.0129475 0)
(1.0002 0.000659108 0)
(1.00514 0.000479111 0)
(0.998753 -0.0168778 0)
(0.986271 0.0086126 0)
(1.00036 0.00896991 0)
(1.00534 0.00095694 0)
(0.997401 -0.00156525 0)
(0.993217 0.0106904 0)
(1.00396 0.0119522 0)
(1.00987 0.0135416 0)
(1.01156 0.0151933 0)
(1.01253 0.00949454 0)
(1.01192 0.00697898 0)
(1.01104 0.00547613 0)
(1.01062 0.00343292 0)
(1.00619 0.00370959 0)
(1.00405 0.0059589 0)
(1.00472 0.00753389 0)
(1.00573 0.0101454 0)
(1.00563 0.0128063 0)
(1.00057 0.000610082 0)
(1.00446 0.000361939 0)
(0.998711 -0.016253 0)
(0.98678 0.00822438 0)
(1.0002 0.00882818 0)
(1.00575 0.00103116 0)
(0.997825 -0.00138649 0)
(0.993243 0.0103813 0)
(1.00302 0.0117911 0)
(1.00915 0.0132102 0)
(1.01074 0.0150077 0)
(1.01217 0.00953097 0)
(1.01173 0.00696185 0)
(1.01113 0.00567606 0)
(1.01073 0.00363263 0)
(1.00657 0.00392761 0)
(1.00444 0.00610326 0)
(1.00522 0.00757787 0)
(1.00628 0.0100632 0)
(1.00609 0.0126771 0)
(1.0008 0.000560484 0)
(1.00407 0.000256983 0)
(0.998457 -0.0156296 0)
(0.98738 0.00782454 0)
(1.00016 0.00867129 0)
(1.00621 0.00110811 0)
(0.998082 -0.00119778 0)
(0.993325 0.0100995 0)
(1.00212 0.0116382 0)
(1.00859 0.0128681 0)
(1.00995 0.0147878 0)
(1.0118 0.00955269 0)
(1.01154 0.00692726 0)
(1.01121 0.00586026 0)
(1.01081 0.00384298 0)
(1.00691 0.0041314 0)
(1.00473 0.00626151 0)
(1.00554 0.00761942 0)
(1.0066 0.00996113 0)
(1.00631 0.0125677 0)
(1.00087 0.000507801 0)
(1.0039 0.000165692 0)
(0.998109 -0.0150104 0)
(0.988068 0.00741171 0)
(1.0001 0.00850071 0)
(1.00667 0.00119389 0)
(0.99822 -0.000999955 0)
(0.993504 0.00984221 0)
(1.00134 0.0114901 0)
(1.00823 0.0125122 0)
(1.00928 0.0145444 0)
(1.01144 0.00956202 0)
(1.01134 0.00687434 0)
(1.01124 0.00602819 0)
(1.01084 0.00406519 0)
(1.00719 0.00432498 0)
(1.00496 0.00643863 0)
(1.00575 0.00767079 0)
(1.00682 0.00983113 0)
(1.00639 0.0124785 0)
(1.0008 0.000450017 0)
(1.0039 8.98661e-05 0)
(0.997742 -0.0143985 0)
(0.988835 0.0069899 0)
(0.999963 0.00831373 0)
(1.00705 0.0012901 0)
(0.9983 -0.000798401 0)
(0.993779 0.00960448 0)
(1.00074 0.0113462 0)
(1.00805 0.0121408 0)
(1.00875 0.0142838 0)
(1.01107 0.00956622 0)
(1.01114 0.00680909 0)
(1.01122 0.00617894 0)
(1.01084 0.00430069 0)
(1.00742 0.00450318 0)
(1.00515 0.00662886 0)
(1.00592 0.00774811 0)
(1.00701 0.00967254 0)
(1.00646 0.0123864 0)
(1.00063 0.000386857 0)
(1.00399 3.22242e-05 0)
(0.997406 -0.013796 0)
(0.989648 0.00656488 0)
(0.999757 0.00811101 0)
(1.0073 0.00139495 0)
(0.998384 -0.000594089 0)
(0.994124 0.00937549 0)
(1.00033 0.011209 0)
(1.00799 0.0117562 0)
(1.00838 0.0140039 0)
(1.0107 0.00957446 0)
(1.01094 0.00673976 0)
(1.01113 0.0063119 0)
(1.01079 0.0045533 0)
(1.00761 0.00466412 0)
(1.00533 0.00681947 0)
(1.00606 0.00786332 0)
(1.00721 0.00950037 0)
(1.00658 0.0122543 0)
(1.00039 0.000318163 0)
(1.0041 -7.88925e-06 0)
(0.997137 -0.0132062 0)
(0.990449 0.00613996 0)
(0.999535 0.00789823 0)
(1.00741 0.00150664 0)
(0.998516 -0.000388726 0)
(0.994497 0.00915104 0)
(1.0001 0.0110811 0)
(1.00799 0.0113583 0)
(1.00815 0.0137033 0)
(1.01032 0.00959354 0)
(1.01075 0.00666481 0)
(1.011 0.00642284 0)
(1.0107 0.00482665 0)
(1.00777 0.00481175 0)
(1.0055 0.00699647 0)
(1.00619 0.0080186 0)
(1.00745 0.0093358 0)
(1.00677 0.0120467 0)
(1.00012 0.000243699 0)
(1.00419 -3.14587e-05 0)
(0.996964 -0.0126307 0)
(0.99118 0.0057184 0)
(0.999346 0.00767905 0)
(1.00739 0.00162022 0)
(0.998717 -0.000185881 0)
(0.994862 0.00892494 0)
(1 0.0109645 0)
(1.00801 0.0109534 0)
(1.00801 0.0133804 0)
(1.00992 0.0096279 0)
(1.01056 0.0065823 0)
(1.01086 0.00650477 0)
(1.01056 0.00512133 0)
(1.0079 0.00495242 0)
(1.00567 0.00714327 0)
(1.00633 0.00820759 0)
(1.00768 0.00920871 0)
(1.00706 0.0117475 0)
(0.999871 0.000165515 0)
(1.00422 -4.06402e-05 0)
(0.996903 -0.012073 0)
(0.991798 0.00530609 0)
(0.99922 0.00744831 0)
(1.00724 0.00173798 0)
(0.998979 1.37942e-05 0)
(0.995197 0.00868711 0)
(0.999998 0.0108596 0)
(1.00803 0.0105534 0)
(1.00794 0.013032 0)
(1.00952 0.00968189 0)
(1.01037 0.00650573 0)
(1.01072 0.00655409 0)
(1.01038 0.00543066 0)
(1.00802 0.00509305 0)
(1.00583 0.00724616 0)
(1.00645 0.00841214 0)
(1.0079 0.00914863 0)
(1.0074 0.0113765 0)
(0.999666 8.5059e-05 0)
(1.00417 -3.87715e-05 0)
(0.996955 -0.0115292 0)
(0.992296 0.00490488 0)
(0.999152 0.00720449 0)
(1.00701 0.00185705 0)
(0.999275 0.000212905 0)
(0.995503 0.00843657 0)
(1.00004 0.0107598 0)
(1.00803 0.0101661 0)
(1.00789 0.0126564 0)
(1.00913 0.00975538 0)
(1.01015 0.00645293 0)
(1.01061 0.0065711 0)
(1.01018 0.00574984 0)
(1.00811 0.00524322 0)
(1.006 0.00729912 0)
(1.00658 0.00860602 0)
(1.00807 0.00917192 0)
(1.00777 0.0109833 0)
(0.999516 -8.57621e-08 0)
(1.00406 -2.17825e-05 0)
(0.997098 -0.0109995 0)
(0.992698 0.00451216 0)
(0.999119 0.00695711 0)
(1.00673 0.00196757 0)
(0.999574 0.000414286 0)
(0.995791 0.00816993 0)
(1.0001 0.0106553 0)
(1.00803 0.00979732 0)
(1.00787 0.0122506 0)
(1.00875 0.00983887 0)
(1.0099 0.00643494 0)
(1.01052 0.00655264 0)
(1.00997 0.00607404 0)
(1.00818 0.00542188 0)
(1.00617 0.00730578 0)
(1.00672 0.00875565 0)
(1.00819 0.00926907 0)
(1.00814 0.0106433 0)
(0.999419 -8.62388e-05 0)
(1.00389 3.56972e-06 0)
(0.997301 -0.0104846 0)
(0.993049 0.0041302 0)
(0.999094 0.00670526 0)
(1.00643 0.00206971 0)
(0.999849 0.000625716 0)
(0.996078 0.00788817 0)
(1.00016 0.0105431 0)
(1.00802 0.00945187 0)
(1.00784 0.0118097 0)
(1.00837 0.00991703 0)
(1.00963 0.00645934 0)
(1.01047 0.00649958 0)
(1.00977 0.00638715 0)
(1.00822 0.00564527 0)
(1.00635 0.00728855 0)
(1.00687 0.00884183 0)
(1.00828 0.00939786 0)
(1.00845 0.010416 0)
(0.999365 -0.000173059 0)
(1.0037 3.31966e-05 0)
(0.997527 -0.00997786 0)
(0.993391 0.00376409 0)
(0.999056 0.00643976 0)
(1.00612 0.002156 0)
(1.00009 0.000848847 0)
(0.996374 0.00760064 0)
(1.0002 0.0104183 0)
(1.008 0.00913951 0)
(1.00782 0.0113374 0)
(1.00801 0.00997952 0)
(1.00934 0.00652716 0)
(1.01043 0.006421 0)
(1.0096 0.00666934 0)
(1.00824 0.00590595 0)
(1.00653 0.00726429 0)
(1.00704 0.00887274 0)
(1.00835 0.00950979 0)
(1.00871 0.010295 0)
(0.999344 -0.000261505 0)
(1.00348 7.12885e-05 0)
(0.99775 -0.00948131 0)
(0.993751 0.00340851 0)
(0.998998 0.00616965 0)
(1.00583 0.00222353 0)
(1.00028 0.00107699 0)
(0.996682 0.00731615 0)
(1.00022 0.0102704 0)
(1.00796 0.00887113 0)
(1.00781 0.0108502 0)
(1.00766 0.0100182 0)
(1.00902 0.00663611 0)
(1.01039 0.00632882 0)
(1.00945 0.00691779 0)
(1.00821 0.00619867 0)
(1.0067 0.00723756 0)
(1.00722 0.00886347 0)
(1.00842 0.00959155 0)
(1.00891 0.0102282 0)
(0.999344 -0.000349946 0)
(1.00325 0.000112966 0)
(0.99795 -0.00899172 0)
(0.99414 0.00305662 0)
(0.998923 0.00590822 0)
(1.00554 0.00226986 0)
(1.00045 0.00130055 0)
(0.996999 0.00704161 0)
(1.00022 0.0100919 0)
(1.00791 0.00864014 0)
(1.00781 0.0103612 0)
(1.00733 0.0100243 0)
(1.00867 0.00678483 0)
(1.01036 0.00623089 0)
(1.00935 0.00713053 0)
(1.00815 0.00653326 0)
(1.00685 0.00721931 0)
(1.00741 0.0088098 0)
(1.00849 0.00966345 0)
(1.00906 0.0101789 0)
(0.999358 -0.000437636 0)
(1.00302 0.000151898 0)
(0.998123 -0.00850094 0)
(0.994553 0.00270692 0)
(0.998838 0.00565778 0)
(1.00525 0.0022883 0)
(1.00059 0.00151125 0)
(0.997318 0.00677934 0)
(1.00022 0.00988562 0)
(1.00783 0.00842763 0)
(1.00781 0.00987301 0)
(1.00701 0.00999085 0)
(1.0083 0.00697138 0)
(1.01032 0.00612935 0)
(1.00929 0.00728241 0)
(1.00806 0.00690357 0)
(1.00696 0.00723266 0)
(1.00762 0.00868931 0)
(1.00857 0.00972387 0)
(1.00917 0.0101535 0)
(0.99938 -0.000521863 0)
(1.00278 0.000190369 0)
(0.998268 -0.00800702 0)
(0.994979 0.00234721 0)
(0.99875 0.0054252 0)
(1.00497 0.00229274 0)
(1.00071 0.00170734 0)
(0.997631 0.00653079 0)
(1.00021 0.00965663 0)
(1.00772 0.00822626 0)
(1.00782 0.00939307 0)
(1.00671 0.00991656 0)
(1.00789 0.00719657 0)
(1.01026 0.00604158 0)
(1.00927 0.00735216 0)
(1.00795 0.00728926 0)
(1.00703 0.00731833 0)
(1.00783 0.00850984 0)
(1.00868 0.00973446 0)
(1.00924 0.0101738 0)
(0.999405 -0.000602891 0)
(1.00255 0.00022542 0)
(0.998386 -0.00750209 0)
(0.995409 0.00197219 0)
(0.998666 0.00521006 0)
(1.0047 0.00228879 0)
(1.00082 0.00188101 0)
(0.997933 0.0063045 0)
(1.00019 0.00941403 0)
(1.00759 0.00804092 0)
(1.00782 0.0089294 0)
(1.00645 0.00979596 0)
(1.00747 0.00744838 0)
(1.01017 0.00599107 0)
(1.0093 0.00733705 0)
(1.00783 0.00765485 0)
(1.00702 0.00750162 0)
(1.00802 0.00831687 0)
(1.00882 0.00964867 0)
(1.00929 0.0102309 0)
(0.999431 -0.000677219 0)
(1.00231 0.000246477 0)
(0.99848 -0.0069813 0)
(0.995832 0.00157867 0)
(0.99859 0.00500775 0)
(1.00442 0.00227937 0)
(1.00092 0.0020209 0)
(0.998222 0.0061057 0)
(1.00017 0.0091635 0)
(1.00743 0.00787024 0)
(1.00782 0.00849055 0)
(1.00621 0.00963165 0)
(1.00702 0.00771183 0)
(1.01005 0.00599105 0)
(1.00937 0.00724777 0)
(1.00774 0.00795809 0)
(1.00694 0.00776733 0)
(1.00817 0.00816795 0)
(1.00901 0.00945717 0)
(1.00934 0.0102609 0)
(0.999456 -0.000742943 0)
(1.00208 0.000249278 0)
(0.998549 -0.00644276 0)
(0.996242 0.00116353 0)
(0.998525 0.00481037 0)
(1.00414 0.00227764 0)
(1.00101 0.00211871 0)
(0.998497 0.00592269 0)
(1.00013 0.0089099 0)
(1.00723 0.00770261 0)
(1.00782 0.00807343 0)
(1.00602 0.00942772 0)
(1.00655 0.00797693 0)
(1.00987 0.00604886 0)
(1.00947 0.00710277 0)
(1.0077 0.00817305 0)
(1.00681 0.00808598 0)
(1.00825 0.00811024 0)
(1.00921 0.00920786 0)
(1.00943 0.0102005 0)
(0.999479 -0.000800651 0)
(1.00186 0.000233297 0)
(0.998594 -0.00588527 0)
(0.996636 0.000736845 0)
(0.998474 0.00460708 0)
(1.00386 0.00229705 0)
(1.00108 0.00217348 0)
(0.998757 0.00573606 0)
(1.00009 0.00866148 0)
(1.00701 0.00753841 0)
(1.00781 0.00766814 0)
(1.00586 0.00917722 0)
(1.00609 0.0082285 0)
(1.00963 0.00617098 0)
(1.00958 0.0069238 0)
(1.00771 0.00828022 0)
(1.00665 0.00842104 0)
(1.00825 0.00815074 0)
(1.00941 0.00895715 0)
(1.00956 0.0100387 0)
(0.999499 -0.000844388 0)
(1.00165 0.000190066 0)
(0.998616 -0.00531465 0)
(0.997009 0.000326556 0)
(0.99844 0.00439018 0)
(1.00356 0.0023421 0)
(1.00114 0.00219199 0)
(0.999006 0.00553547 0)
(1.00005 0.00842283 0)
(1.00675 0.00739396 0)
(1.00778 0.00728328 0)
(1.00576 0.00887881 0)
(1.00563 0.008449 0)
(1.00932 0.00636123 0)
(1.00969 0.00674243 0)
(1.00779 0.00826879 0)
(1.00649 0.00873692 0)
(1.00815 0.00827781 0)
(1.00958 0.00873811 0)
(1.00975 0.0097949 0)
(0.999517 -0.000876252 0)
(1.00145 0.000114217 0)
(0.998618 -0.00473461 0)
(0.997359 -3.76239e-05 0)
(0.998426 0.00413647 0)
(1.00327 0.00242139 0)
(1.00119 0.00220444 0)
(0.999245 0.00531943 0)
(1 0.00818342 0)
(1.00647 0.00727088 0)
(1.00773 0.00692877 0)
(1.0057 0.00853586 0)
(1.0052 0.00862005 0)
(1.00894 0.00661376 0)
(1.00977 0.00659742 0)
(1.00794 0.00814144 0)
(1.00635 0.00899601 0)
(1.00797 0.00848292 0)
(1.00967 0.00857878 0)
(1.00996 0.00949448 0)
(0.999532 -0.000892972 0)
(1.00127 1.1033e-05 0)
(0.998602 -0.00416342 0)
(0.997679 -0.00035331 0)
(0.998433 0.0038319 0)
(1.00297 0.00252598 0)
(1.00121 0.00221876 0)
(0.999474 0.00508439 0)
(0.999962 0.00793939 0)
(1.00615 0.00717363 0)
(1.00765 0.00661665 0)
(1.00569 0.00815134 0)
(1.00481 0.00872073 0)
(1.0085 0.00690551 0)
(1.00978 0.00652291 0)
(1.00814 0.00792235 0)
(1.00626 0.00915282 0)
(1.00771 0.00874232 0)
(1.00966 0.00850869 0)
(1.01018 0.00916315 0)
(0.999545 -0.000894429 0)
(1.00111 -0.000121955 0)
(0.998573 -0.0036064 0)
(0.997967 -0.000607504 0)
(0.998465 0.00346669 0)
(1.00268 0.00263365 0)
(1.0012 0.00223988 0)
(0.999692 0.00482706 0)
(0.999929 0.00768736 0)
(1.00581 0.00710018 0)
(1.00753 0.00635896 0)
(1.00572 0.007735 0)
(1.00449 0.00873746 0)
(1.00802 0.00720391 0)
(1.00971 0.00653443 0)
(1.00838 0.00766173 0)
(1.00626 0.00917656 0)
(1.00742 0.00899794 0)
(1.00953 0.00854312 0)
(1.01037 0.00885011 0)
(0.999556 -0.000883503 0)
(1.00096 -0.000273172 0)
(0.998535 -0.00307587 0)
(0.998216 -0.000779771 0)
(0.998522 0.00304603 0)
(1.0024 0.00272695 0)
(1.00117 0.00228919 0)
(0.999896 0.00454592 0)
(0.999912 0.00740871 0)
(1.00545 0.00704096 0)
(1.00737 0.00617098 0)
(1.00577 0.00732147 0)
(1.00424 0.00867249 0)
(1.00752 0.00747466 0)
(1.00954 0.00661566 0)
(1.00861 0.00741049 0)
(1.00634 0.00907478 0)
(1.00714 0.00918364 0)
(1.00928 0.00865353 0)
(1.01046 0.00861903 0)
(0.999566 -0.000859062 0)
(1.00084 -0.000435005 0)
(0.998495 -0.00259138 0)
(0.998421 -0.000865012 0)
(0.998602 0.00259354 0)
(1.00214 0.00278648 0)
(1.0011 0.00238255 0)
(1.00008 0.00426842 0)
(0.999917 0.00709835 0)
(1.00509 0.00698516 0)
(1.00716 0.00605008 0)
(1.00583 0.00693195 0)
(1.00405 0.00852798 0)
(1.00702 0.00769074 0)
(1.00929 0.00674385 0)
(1.0088 0.00720097 0)
(1.00649 0.00888699 0)
(1.0069 0.00927732 0)
(1.00895 0.0087816 0)
(1.01044 0.00849879 0)
(0.999575 -0.000823668 0)
(1.00073 -0.000606346 0)
(0.998461 -0.00215847 0)
(0.998582 -0.000861768 0)
(0.9987 0.00213595 0)
(1.00192 0.0027879 0)
(1.001 0.00252185 0)
(1.00024 0.00403198 0)
(0.999944 0.00675552 0)
(1.00474 0.00691075 0)
(1.0069 0.00599636 0)
(1.00588 0.00658366 0)
(1.00393 0.00831381 0)
(1.00655 0.0078377 0)
(1.00897 0.00690055 0)
(1.00895 0.00703848 0)
(1.00669 0.00863224 0)
(1.00671 0.00927907 0)
(1.00858 0.00887712 0)
(1.01029 0.00845353 0)
(0.999583 -0.000779125 0)
(1.00065 -0.000770598 0)
(0.998439 -0.00179228 0)
(0.998701 -0.000785244 0)
(0.998806 0.00171368 0)
(1.00175 0.00271648 0)
(1.00089 0.0026845 0)
(1.00036 0.00385171 0)
(0.999988 0.00639363 0)
(1.00442 0.00678963 0)
(1.00661 0.00599792 0)
(1.00592 0.0062999 0)
(1.00387 0.00804797 0)
(1.00611 0.00789927 0)
(1.00859 0.00705525 0)
(1.00902 0.00692584 0)
(1.00693 0.00832717 0)
(1.00659 0.00919126 0)
(1.00819 0.00893642 0)
(1.01004 0.00843133 0)
(0.999592 -0.000731153 0)
(1.00058 -0.000918577 0)
(0.998437 -0.00150218 0)
(0.998781 -0.000645544 0)
(0.998913 0.00135024 0)
(1.00162 0.00257308 0)
(1.00077 0.00284888 0)
(1.00044 0.00373731 0)
(1.00004 0.00603247 0)
(1.00412 0.00660918 0)
(1.00629 0.00600836 0)
(1.00592 0.00608993 0)
(1.00385 0.00776238 0)
(1.00572 0.00787717 0)
(1.00817 0.00717216 0)
(1.009 0.00685884 0)
(1.00718 0.00800937 0)
(1.00656 0.00900939 0)
(1.00781 0.00896614 0)
(1.00972 0.00840865 0)
(0.999601 -0.000681944 0)
(1.00054 -0.00104513 0)
(0.99846 -0.00128799 0)
(0.998832 -0.000452753 0)
(0.99901 0.0010623 0)
(1.00154 0.00235037 0)
(1.00067 0.00298168 0)
(1.00049 0.00370561 0)
(1.0001 0.00570493 0)
(1.00386 0.00637913 0)
(1.00597 0.00599015 0)
(1.00589 0.00593582 0)
(1.00386 0.00748339 0)
(1.00539 0.00779638 0)
(1.00773 0.00724129 0)
(1.0089 0.00681883 0)
(1.0074 0.00772098 0)
(1.0066 0.00874641 0)
(1.00747 0.00894948 0)
(1.00935 0.00838962 0)
(0.999612 -0.000635919 0)
(1.0005 -0.00113978 0)
(0.998512 -0.00115087 0)
(0.998864 -0.000240699 0)
(0.999086 0.000869394 0)
(1.00151 0.00208144 0)
(1.00061 0.00305001 0)
(1.00051 0.00373904 0)
(1.00014 0.00543509 0)
(1.00364 0.00611272 0)
(1.00565 0.00593279 0)
(1.00584 0.00580679 0)
(1.00389 0.00721468 0)
(1.0051 0.00767511 0)
(1.00729 0.00727094 0)
(1.00874 0.00678307 0)
(1.00758 0.00747407 0)
(1.00671 0.00843639 0)
(1.00719 0.00886229 0)
(1.00894 0.00837946 0)
(0.999625 -0.000597153 0)
(1.00047 -0.00119869 0)
(0.998593 -0.00108224 0)
(0.998888 -2.03425e-05 0)
(0.999136 0.000766234 0)
(1.00152 0.00180232 0)
(1.00059 0.00303416 0)
(1.00052 0.00380245 0)
(1.00016 0.00524125 0)
(1.00344 0.0058455 0)
(1.00535 0.00583885 0)
(1.00577 0.00569565 0)
(1.00394 0.00696082 0)
(1.00486 0.00752199 0)
(1.00686 0.00727686 0)
(1.00852 0.00675156 0)
(1.00771 0.00725965 0)
(1.00686 0.00810879 0)
(1.00699 0.00869003 0)
(1.00852 0.00835105 0)
(0.99964 -0.000566574 0)
(1.00045 -0.00121409 0)
(0.998703 -0.00107295 0)
(0.998916 0.000175528 0)
(0.999154 0.000752542 0)
(1.00154 0.0015444 0)
(1.00062 0.00292132 0)
(1.00053 0.00385611 0)
(1.00015 0.0051284 0)
(1.00326 0.00560499 0)
(1.00507 0.00569649 0)
(1.00568 0.00557558 0)
(1.00399 0.0067228 0)
(1.00468 0.00734383 0)
(1.00645 0.0072618 0)
(1.00826 0.0067348 0)
(1.00778 0.00708507 0)
(1.00702 0.00779308 0)
(1.00687 0.00845887 0)
(1.00812 0.00828589 0)
(0.999658 -0.000555667 0)
(1.00042 -0.00119247 0)
(0.998834 -0.00108069 0)
(0.998961 0.000323773 0)
(0.999148 0.00081685 0)
(1.00156 0.00134461 0)
(1.0007 0.0027277 0)
(1.00057 0.00387184 0)
(1.00013 0.005086 0)
(1.00308 0.00541734 0)
(1.00482 0.00554018 0)
(1.00559 0.00542946 0)
(1.00405 0.00648833 0)
(1.00454 0.00714103 0)
(1.00607 0.00720025 0)
(1.00796 0.00669954 0)
(1.00778 0.00692809 0)
(1.00718 0.00748025 0)
(1.00683 0.00817406 0)
(1.00779 0.00814522 0)
(0.999678 -0.000527114 0)
(1.0004 -0.00115537 0)
(0.998982 -0.00113727 0)
(0.999027 0.00039107 0)
(0.999122 0.000907409 0)
(1.00157 0.00120337 0)
(1.00083 0.00248226 0)
(1.00066 0.0038218 0)
(1.0001 0.00506794 0)
(1.00289 0.00527596 0)
(1.00456 0.00539583 0)
(1.0055 0.00527266 0)
(1.00411 0.00625062 0)
(1.00445 0.00692573 0)
(1.00573 0.00711134 0)
(1.00765 0.00664391 0)
(1.00773 0.00679069 0)
(1.00731 0.00719296 0)
(1.00685 0.00786971 0)
(1.00753 0.00793884 0)
(0.999699 -0.000569552 0)
(1.00036 -0.00101525 0)
(0.999134 -0.00113297 0)
(0.999124 0.00043224 0)
(0.999091 0.00104399 0)
(1.00155 0.00115953 0)
(1.00098 0.00224516 0)
(1.00081 0.00369659 0)
(1.00009 0.00505273 0)
(1.00268 0.00518333 0)
(1.00431 0.00526952 0)
(1.00541 0.00512175 0)
(1.00419 0.00600577 0)
(1.0044 0.00667992 0)
(1.00542 0.00699582 0)
(1.00733 0.0065696 0)
(1.00763 0.00665673 0)
(1.00741 0.00692999 0)
(1.00689 0.00756599 0)
(1.00735 0.00768916 0)
(0.999725 -0.000545281 0)
(1.00035 -0.000997751 0)
(0.999279 -0.0012321 0)
(0.99924 0.000383864 0)
(0.999062 0.00119003 0)
(1.00151 0.00121496 0)
(1.00113 0.0020391 0)
(1.00101 0.00346167 0)
(1.0001 0.00498666 0)
(1.00247 0.00511604 0)
(1.00405 0.00516432 0)
(1.0053 0.0049819 0)
(1.00426 0.00577354 0)
(1.0044 0.00641451 0)
(1.00517 0.00685155 0)
(1.00701 0.00648997 0)
(1.00749 0.00652816 0)
(1.00747 0.00668459 0)
(1.00694 0.00727114 0)
(1.00724 0.00741853 0)
(0.999748 -0.000572074 0)
(1.00029 -0.000869397 0)
(0.999436 -0.0012321 0)
(0.999417 0.000309675 0)
(0.999069 0.00132272 0)
(1.00143 0.00134327 0)
(1.00126 0.00191165 0)
(1.00126 0.00317279 0)
(1.00018 0.00484097 0)
(1.00228 0.00505025 0)
(1.00379 0.0050848 0)
(1.00519 0.00484698 0)
(1.00434 0.00555608 0)
(1.00444 0.00614608 0)
(1.00497 0.00666853 0)
(1.0067 0.00638655 0)
(1.00731 0.00640334 0)
(1.00751 0.00644886 0)
(1.00701 0.00697641 0)
(1.00717 0.00713846 0)
(0.999776 -0.000604653 0)
(1.00026 -0.000712602 0)
(0.999546 -0.00114928 0)
(0.999585 0.000238736 0)
(0.999095 0.00139562 0)
(1.00133 0.00146921 0)
(1.00133 0.00185016 0)
(1.00151 0.0028776 0)
(1.0003 0.00460259 0)
(1.00211 0.00495533 0)
(1.00351 0.00501789 0)
(1.00504 0.00471829 0)
(1.00439 0.00533312 0)
(1.00449 0.00586678 0)
(1.00482 0.00645005 0)
(1.00641 0.00624198 0)
(1.00709 0.00627076 0)
(1.00749 0.00622492 0)
(1.00706 0.00667621 0)
(1.00713 0.00684816 0)
(0.999797 -0.000583503 0)
(1.0002 -0.00062692 0)
(0.999652 -0.00109035 0)
(0.999782 0.000142303 0)
(0.999158 0.00138574 0)
(1.00123 0.0015646 0)
(1.00136 0.00184062 0)
(1.00175 0.00261205 0)
(1.00048 0.00429599 0)
(1.00198 0.00481305 0)
(1.00324 0.00494841 0)
(1.00487 0.00460846 0)
(1.00443 0.00512131 0)
(1.00457 0.00557942 0)
(1.00471 0.00621937 0)
(1.00615 0.0060744 0)
(1.00687 0.0061217 0)
(1.00742 0.0060158 0)
(1.0071 0.00637029 0)
(1.00712 0.00653116 0)
(0.999825 -0.00060641 0)
(1.00018 -0.000509778 0)
(0.999715 -0.000934303 0)
(0.999953 7.58736e-05 0)
(0.999241 0.00134194 0)
(1.00113 0.00164308 0)
(1.00134 0.00188792 0)
(1.00195 0.00242114 0)
(1.00069 0.00397638 0)
(1.00191 0.00461996 0)
(1.00297 0.00486715 0)
(1.00467 0.00450718 0)
(1.00442 0.00493079 0)
(1.00464 0.00528528 0)
(1.00465 0.00595977 0)
(1.00592 0.0058904 0)
(1.00662 0.00595197 0)
(1.00729 0.00581944 0)
(1.0071 0.00609083 0)
(1.00711 0.00621188 0)
(0.999839 -0.00060149 0)
(1.00013 -0.000388508 0)
(0.999766 -0.000803418 0)
(1.00012 1.47888e-05 0)
(0.999349 0.00127335 0)
(1.00104 0.00169522 0)
(1.00129 0.00194759 0)
(1.00209 0.00228879 0)
(1.00091 0.00366746 0)
(1.0019 0.00438348 0)
(1.00273 0.00477074 0)
(1.00445 0.00442483 0)
(1.00438 0.00478213 0)
(1.00471 0.00503441 0)
(1.00463 0.00568947 0)
(1.00572 0.00570644 0)
(1.00638 0.0057991 0)
(1.00714 0.00564351 0)
(1.00705 0.00586789 0)
(1.0071 0.0059237 0)
(0.999868 -0.000581275 0)
(1.00011 -0.000363268 0)
(0.99977 -0.000656603 0)
(1.00025 1.79628e-05 0)
(0.999473 0.00119086 0)
(1.00098 0.00171232 0)
(1.00122 0.00200561 0)
(1.00219 0.00221321 0)
(1.00112 0.00339707 0)
(1.00193 0.00412039 0)
(1.00253 0.00464216 0)
(1.00422 0.00433139 0)
(1.0043 0.00462647 0)
(1.00474 0.00478302 0)
(1.00462 0.00537824 0)