/*--------------------------------*- C++ -*----------------------------------*\
| =========                 |                                                 |
| \\      /  F ield         | OpenFOAM: The Open Source CFD Toolbox           |
|  \\    /   O peration     | Version:  2506                                  |
|   \\  /    A nd           | Website:  www.openfoam.com                      |
|    \\/     M anipulation  |                                                 |
\*---------------------------------------------------------------------------*/
FoamFile
{
    version     2.0;
    format      ascii;
    arch        "LSB;label=32;scalar=64";
    class       volScalarField;
    location    "8.5";
    object      p;
}
// * * * * * * * * * * * * * * * * * * * * * * * * * * * * * * * * * * * * * //

dimensions      [0 2 -2 0 0 0 0];

internalField   nonuniform List<scalar> 
9600
(
2.45005e-11
-0.00127229
0.000911885
-0.00263787
-0.00162164
-0.00297461
-0.00183327
0.000178595
0.000665276
-0.00221442
-0.00230811
-0.00783073
-0.0099598
-0.00856177
-0.0109522
-0.00942941
-0.0109536
-0.0105716
-0.0141441
-0.0100413
9.42623e-07
-0.00127835
0.000913486
-0.00264084
-0.00161992
-0.00296363
-0.00183256
0.000153496
0.00067386
-0.00225209
-0.00230365
-0.00785386
-0.00994836
-0.00855865
-0.0109388
-0.00941449
-0.0109304
-0.0105883
-0.0137512
-0.0101438
1.3875e-06
-0.00128599
0.000916807
-0.00264465
-0.00161527
-0.00294847
-0.00183911
0.000124464
0.000679259
-0.00231234
-0.0023057
-0.00787134
-0.00993195
-0.00854753
-0.0108986
-0.00941855
-0.0108977
-0.010613
-0.013522
-0.0102986
1.47996e-06
-0.00129523
0.000916321
-0.00264995
-0.00160831
-0.00293526
-0.00184796
9.36385e-05
0.000668961
-0.00239867
-0.00232548
-0.00787147
-0.00991073
-0.00852769
-0.0108403
-0.00944925
-0.0108654
-0.0106858
-0.0133123
-0.0104483
1.31955e-06
-0.00130726
0.000910849
-0.00265565
-0.00159948
-0.00292356
-0.00185593
5.78292e-05
0.000646693
-0.00250755
-0.00235645
-0.00784951
-0.00988401
-0.00850292
-0.0107756
-0.00949642
-0.0108369
-0.0107319
-0.0131148
-0.0105936
7.08405e-07
-0.00132301
0.000902084
-0.00266028
-0.00158923
-0.0029121
-0.00186317
1.48516e-05
0.000618155
-0.00263106
-0.00239001
-0.00780613
-0.00985225
-0.00847687
-0.0107096
-0.00955055
-0.0108128
-0.0107717
-0.0129363
-0.0107465
-5.64549e-07
-0.00134296
0.000891698
-0.00266232
-0.00157801
-0.00290042
-0.00187036
-3.60797e-05
0.000587142
-0.00276093
-0.00242268
-0.00774572
-0.00981579
-0.00845035
-0.010643
-0.00960636
-0.0107917
-0.0108033
-0.0127863
-0.0109069
-2.66045e-06
-0.00136727
0.000880881
-0.00266075
-0.00156629
-0.00288819
-0.00187806
-9.48947e-05
0.000556203
-0.00289185
-0.00245398
-0.00767209
-0.00977452
-0.00842311
-0.0105767
-0.00965958
-0.0107726
-0.0108289
-0.0126622
-0.0110654
-5.67894e-06
-0.00139573
0.000870522
-0.00265527
-0.00155454
-0.00287509
-0.00188684
-0.000160875
0.000526474
-0.00302119
-0.00248425
-0.00758768
-0.0097286
-0.00839469
-0.0105119
-0.00970684
-0.0107576
-0.0108507
-0.0125516
-0.0112198
-9.63042e-06
-0.00142777
0.000861072
-0.00264629
-0.00154315
-0.00286085
-0.0018971
-0.000233083
0.000497951
-0.00314765
-0.00251448
-0.00749401
-0.00967895
-0.0083641
-0.0104498
-0.00974743
-0.0107481
-0.0108676
-0.0124774
-0.0113765
-1.44368e-05
-0.00146258
0.000852478
-0.00263466
-0.00153248
-0.00284539
-0.00190905
-0.000310669
0.000469957
-0.00327022
-0.0025462
-0.00739258
-0.00962684
-0.00833013
-0.0103916
-0.00978157
-0.0107427
-0.010879
-0.0123835
-0.0115398
-1.99695e-05
-0.00149925
0.000844355
-0.00262149
-0.00152279
-0.00282876
-0.00192284
-0.000392796
0.000441382
-0.00338793
-0.00258126
-0.00728513
-0.00957348
-0.00829211
-0.0103389
-0.00980872
-0.0107391
-0.0108887
-0.0122924
-0.0117068
-2.61027e-05
-0.00153693
0.000836205
-0.00260779
-0.00151433
-0.00281108
-0.00193869
-0.000478419
0.000410892
-0.00350018
-0.00262135
-0.00717345
-0.00952019
-0.00824963
-0.0102922
-0.00982877
-0.0107361
-0.0109015
-0.0122006
-0.0118723
-3.27573e-05
-0.0015749
0.000827558
-0.00259435
-0.00150734
-0.00279244
-0.00195691
-0.000566163
0.000377
-0.00360699
-0.00266768
-0.00705912
-0.00946832
-0.00820217
-0.0102516
-0.00984287
-0.0107321
-0.0109214
-0.0121055
-0.0120341
-3.99181e-05
-0.00161266
0.000818044
-0.00258168
-0.00150198
-0.00277277
-0.00197784
-0.000654559
0.000338084
-0.00370892
-0.00272104
-0.006943
-0.00941903
-0.00814924
-0.0102163
-0.0098534
-0.0107234
-0.0109531
-0.0120077
-0.0121875
-4.76295e-05
-0.00164995
0.000807382
-0.00256999
-0.00149847
-0.0027518
-0.0020018
-0.000742468
0.000292668
-0.0038066
-0.00278205
-0.0068251
-0.0093732
-0.00809073
-0.0101851
-0.00986371
-0.0107048
-0.0110002
-0.0119114
-0.0123252
-5.59787e-05
-0.00168667
0.000795361
-0.00255921
-0.00149705
-0.00272919
-0.00202922
-0.000829193
0.000239728
-0.00390022
-0.00285147
-0.00670494
-0.00933131
-0.00802723
-0.0101558
-0.00987799
-0.0106716
-0.0110627
-0.0118227
-0.012439
-6.5073e-05
-0.00172284
0.000781786
-0.0025491
-0.00149804
-0.00270457
-0.00206057
-0.000914273
0.000178665
-0.00398958
-0.0029302
-0.00658226
-0.0092934
-0.00796007
-0.0101249
-0.00990105
-0.0106212
-0.0111391
-0.0117485
-0.0125192
-7.50187e-05
-0.00175851
0.000766422
-0.00253937
-0.00150176
-0.00267761
-0.00209632
-0.000997375
0.000109108
-0.00407445
-0.00301892
-0.00645698
-0.0092593
-0.00789122
-0.0100884
-0.00993755
-0.0105535
-0.0112238
-0.0116956
-0.0125591
-8.59116e-05
-0.00179378
0.000748984
-0.00252968
-0.00150855
-0.00264805
-0.00213692
-0.00107835
3.07202e-05
-0.00415443
-0.00311815
-0.00632915
-0.00922827
-0.00782377
-0.0100416
-0.00999107
-0.0104707
-0.0113083
-0.011659
-0.012557
-9.78406e-05
-0.00182873
0.000729169
-0.00251964
-0.00151876
-0.00261567
-0.00218274
-0.00115727
-5.68766e-05
-0.00422911
-0.00322803
-0.00619934
-0.00919873
-0.00776135
-0.00998008
-0.0100632
-0.0103783
-0.0113824
-0.0116163
-0.0125172
-0.000110886
-0.00186346
0.00070666
-0.00250886
-0.00153281
-0.00258033
-0.0022342
-0.00123425
-0.000153857
-0.00429845
-0.00334789
-0.0060689
-0.00916869
-0.00770721
-0.0099013
-0.0101539
-0.0102836
-0.0114367
-0.0116241
-0.0124496
-0.000125106
-0.00189807
0.000681124
-0.00249696
-0.00155112
-0.0025419
-0.00229166
-0.00130944
-0.000260132
-0.00436257
-0.0034768
-0.0059396
-0.00913579
-0.00766473
-0.00980375
-0.0102607
-0.0101951
-0.011463
-0.011707
-0.0123686
-0.000140549
-0.00193261
0.000652218
-0.00248359
-0.00157421
-0.00250022
-0.00235533
-0.00138327
-0.000375354
-0.00442204
-0.00361335
-0.00581323
-0.00909804
-0.00763706
-0.00968672
-0.0103781
-0.0101237
-0.0114546
-0.0118319
-0.0122919
-0.000157249
-0.00196712
0.000619591
-0.00246842
-0.00160259
-0.00245523
-0.00242526
-0.00145637
-0.000498716
-0.00447809
-0.00375526
-0.00569174
-0.00905421
-0.00762616
-0.00955106
-0.0105001
-0.0100793
-0.0114068
-0.011975
-0.0122375
-0.000175222
-0.00200164
0.000582879
-0.00245105
-0.00163683
-0.00240696
-0.00250126
-0.00152958
-0.000628815
-0.00453224
-0.00390042
-0.00557677
-0.00900313
-0.00763348
-0.00939939
-0.0106197
-0.0100699
-0.01132
-0.0121199
-0.0122226
-0.000194487
-0.00203616
0.000541691
-0.00243107
-0.00167747
-0.00235557
-0.00258277
-0.00160431
-0.000763892
-0.00458628
-0.00404696
-0.00546951
-0.00894393
-0.00765992
-0.00923508
-0.0107296
-0.0101014
-0.0112008
-0.0122491
-0.0122591
-0.000215056
-0.0020707
0.000495555
-0.00240805
-0.00172496
-0.00230145
-0.00266876
-0.00168235
-0.000901623
-0.00464207
-0.00419391
-0.00537163
-0.00887614
-0.00770599
-0.00906196
-0.0108214
-0.0101771
-0.0110616
-0.0123425
-0.01235
-0.000236934
-0.00210526
0.000443939
-0.00238151
-0.00177969
-0.00224523
-0.00275795
-0.00176539
-0.00103907
-0.00470124
-0.00434128
-0.00529392
-0.00879953
-0.00777251
-0.0088854
-0.0108857
-0.0102957
-0.0109188
-0.0123819
-0.0124863
-0.000260142
-0.0021398
0.000386287
-0.00235104
-0.00184194
-0.00218767
-0.0028486
-0.00185556
-0.00117396
-0.00476378
-0.0044893
-0.00521434
-0.00871408
-0.00785949
-0.00871148
-0.0109145
-0.0104521
-0.0107902
-0.0123546
-0.0126462
-0.00028471
-0.00217415
0.000321911
-0.00231626
-0.00191175
-0.00212989
-0.00293856
-0.00195561
-0.00130449
-0.00482843
-0.00463912
-0.00513422
-0.00861915
-0.00796634
-0.00854633
-0.0109015
-0.0106377
-0.0106941
-0.0122583
-0.0128002
-0.000310679
-0.00220814
0.00025009
-0.00227696
-0.00198884
-0.00207337
-0.00302526
-0.00206781
-0.00142943
-0.00489321
-0.00479325
-0.00505844
-0.0085123
-0.00809284
-0.0083981
-0.0108406
-0.0108393
-0.0106472
-0.0121054
-0.0129199
-0.000338163
-0.00224152
0.000170141
-0.00223305
-0.00207269
-0.00201998
-0.00310582
-0.00219355
-0.00154871
-0.00495564
-0.00495426
-0.0049896
-0.00839004
-0.00823728
-0.00827712
-0.0107282
-0.0110402
-0.0106616
-0.011887
-0.012967
-0.000367281
-0.00227395
8.12675e-05
-0.00218452
-0.00216244
-0.00197214
-0.00317717
-0.00233376
-0.0016636
-0.00501213
-0.00512406
-0.00493065
-0.00824918
-0.00839551
-0.008193
-0.0105672
-0.0112222
-0.0107409
-0.0116814
-0.0129153
-0.00039817
-0.00230505
-1.72251e-05
-0.00213168
-0.00225682
-0.0019326
-0.00323636
-0.0024885
-0.00177659
-0.00505834
-0.00530315
-0.00488623
-0.00808725
-0.00856106
-0.00815447
-0.0103656
-0.0113662
-0.0108761
-0.0115012
-0.0127676
-0.000431059
-0.00233436
-0.000125859
-0.00207491
-0.00235415
-0.00190446
-0.00328096
-0.00265659
-0.00189112
-0.00509111
-0.00549041
-0.00486311
-0.0079026
-0.00872416
-0.00816962
-0.0101364
-0.0114549
-0.0110511
-0.0113741
-0.012554
-0.000466178
-0.00236148
-0.000245007
-0.00201497
-0.00245218
-0.00189103
-0.00330931
-0.00283558
-0.00201135
-0.00510745
-0.00568488
-0.00486937
-0.00769622
-0.00887266
-0.00824197
-0.00989722
-0.0114751
-0.011245
-0.0113164
-0.0123106
-0.00050377
-0.00238607
-0.000374863
-0.00195311
-0.00254815
-0.0018951
-0.00332087
-0.00302204
-0.00214147
-0.00510542
-0.00588287
-0.00491232
-0.00747314
-0.00899417
-0.00836912
-0.00966818
-0.0114227
-0.011433
-0.0113253
-0.0120741
-0.000544101
-0.00240774
-0.000515307
-0.00189085
-0.00263914
-0.00191899
-0.00331649
-0.00321102
-0.00228583
-0.00508605
-0.00607614
-0.00499658
-0.00724115
-0.00907599
-0.00854354
-0.00947058
-0.0113008
-0.0115919
-0.0113879
-0.0118766
-0.000587481
-0.00242618
-0.000665679
-0.00183037
-0.00272207
-0.00196471
-0.00329806
-0.0033961
-0.00244897
-0.0050525
-0.00625582
-0.00512442
-0.00701263
-0.00910628
-0.00875145
-0.00932561
-0.0111192
-0.011701
-0.0114884
-0.0117347
-0.000634348
-0.00244101
-0.000825018
-0.00177407
-0.00279392
-0.00203364
-0.00326855
-0.00357079
-0.00263368
-0.00500982
-0.00641354
-0.00529389
-0.00680323
-0.00907865
-0.00897338
-0.00924744
-0.0108972
-0.0117443
-0.0116074
-0.0116516
-0.000685169
-0.00245166
-0.000991977
-0.00172451
-0.00285192
-0.00212591
-0.00323329
-0.00372882
-0.00283912
-0.00496574
-0.00654391
-0.00549897
-0.00662877
-0.00899449
-0.00918759
-0.00923825
-0.01066
-0.0117141
-0.0117237
-0.0116252
-0.000740528
-0.00245745
-0.00116483
-0.00164962
-0.00289342
-0.00224024
-0.00319953
-0.00386429
-0.00306193
-0.00492921
-0.00664403
-0.00573122
-0.00650174
-0.00886054
-0.00937218
-0.00929093
-0.0104359
-0.0116142
-0.0118146
-0.0116468
-0.000801221
-0.00245795
-0.00134193
-0.00162612
-0.00291694
-0.00237369
-0.00317498
-0.00397392
-0.00329727
-0.0049084
-0.00671261
-0.00598007
-0.00643011
-0.00868825
-0.00950807
-0.00939252
-0.0102502
-0.0114524
-0.0118541
-0.0116948
-0.000868016
-0.00245291
-0.00152071
-0.00162093
-0.0029219
-0.00252118
-0.00316769
-0.0040578
-0.00353696
-0.0049098
-0.00675155
-0.00623334
-0.00642225
-0.00849377
-0.00958311
-0.00952542
-0.0101182
-0.011254
-0.0118286
-0.0117424
-0.00094137
-0.00244253
-0.00169779
-0.00163732
-0.0029098
-0.00267528
-0.00318415
-0.00411884
-0.00377186
-0.00493806
-0.00676574
-0.00647623
-0.00647098
-0.0082972
-0.00959397
-0.00966527
-0.0100459
-0.0110517
-0.0117458
-0.0117675
-0.0010214
-0.00242784
-0.00186877
-0.00167791
-0.0028857
-0.00282638
-0.00322669
-0.00416505
-0.00399493
-0.00499374
-0.00676093
-0.00669648
-0.00656531
-0.00811991
-0.00954634
-0.00978926
-0.0100281
-0.0108679
-0.0116211
-0.0117573
-0.00110792
-0.00241058
-0.00202917
-0.00174418
-0.00285701
-0.00296725
-0.00329498
-0.00420422
-0.00420172
-0.00507292
-0.00674519
-0.0068861
-0.00669194
-0.00794713
-0.00945117
-0.00988121
-0.0100523
-0.0107166
-0.0114684
-0.0117088
-0.00120022
-0.0023933
-0.00217587
-0.00183503
-0.00283257
-0.00309461
-0.00338401
-0.00424167
-0.00439005
-0.00517004
-0.00672523
-0.00704121
-0.00684153
-0.00784658
-0.00932563
-0.00993781
-0.0101025
-0.0106059
-0.0113012
-0.0116236
-0.00129731
-0.00237871
-0.00230722
-0.00194682
-0.00282103
-0.00320778
-0.00348583
-0.00428188
-0.00455925
-0.00527953
-0.0067072
-0.00716184
-0.00700149
-0.00778724
-0.00918501
-0.00994523
-0.0101576
-0.0105364
-0.0111371
-0.0115038
-0.00139826
-0.00236891
-0.0024227
-0.00207438
-0.00282756
-0.00330837
-0.00359507
-0.00432783
-0.00470975
-0.00539637
-0.00669603
-0.00725092
-0.0071577
-0.00776698
-0.00905007
-0.00991432
-0.0102006
-0.0104995
-0.0109927
-0.0113578
-0.00150205
-0.00236558
-0.00252366
-0.00221173
-0.00285431
-0.00340264
-0.00370951
-0.00437972
-0.00484245
-0.00551572
-0.00669513
-0.0073134
-0.00729908
-0.00777837
-0.00892968
-0.00985485
-0.0102253
-0.0104825
-0.0108776
-0.0112026
-0.00160768
-0.00236994
-0.00261286
-0.00235381
-0.00290157
-0.00349589
-0.00382901
-0.00443776
-0.00495719
-0.0056329
-0.0067073
-0.00735628
-0.00741949
-0.00780852
-0.00882599
-0.00977558
-0.0102304
-0.0104742
-0.0107893
-0.0110553
-0.00171446
-0.00238292
-0.00269208
-0.00249734
-0.00296532
-0.00358981
-0.00395386
-0.00450314
-0.00505329
-0.00574224
-0.00673256
-0.00738877
-0.00751974
-0.00784701
-0.00873861
-0.00968259
-0.0102152
-0.0104686
-0.0107206
-0.0109271
-0.00182093
-0.00240363
-0.0027644
-0.00264057
-0.0030455
-0.00368784
-0.00408602
-0.00457839
-0.00513223
-0.00583514
-0.00676635
-0.00741945
-0.00760237
-0.00788829
-0.00866593
-0.00958037
-0.010178
-0.0104616
-0.0106676
-0.0108188
-0.00192837
-0.00243302
-0.00282901
-0.00277996
-0.00313906
-0.00379093
-0.00422601
-0.00466498
-0.00519677
-0.00590774
-0.00680326
-0.00745301
-0.00767491
-0.00793017
-0.00860545
-0.0094725
-0.0101177
-0.0104481
-0.0106271
-0.0107259
-0.00203536
-0.0024773
-0.00288982
-0.00291371
-0.00324453
-0.00389488
-0.00436923
-0.0047621
-0.00525082
-0.00595957
-0.00683523
-0.00748743
-0.00774369
-0.00797397
-0.00855648
-0.00936455
-0.0100347
-0.0104182
-0.0105931
-0.0106459
-0.0021329
-0.00250984
-0.00296584
-0.00307054
-0.00336462
-0.00399521
-0.00450861
-0.00487095
-0.00530166
-0.00599009
-0.00685479
-0.00751893
-0.0078085
-0.00802249
-0.00852036
-0.00926042
-0.00993231
-0.0103626
-0.0105588
-0.01058
-0.00223538
-0.00256771
-0.00303647
-0.00321261
-0.00348582
-0.00408818
-0.00463979
-0.00499417
-0.00536406
-0.0060066
-0.00685813
-0.00754269
-0.0078693
-0.0080773
-0.00849907
-0.00916388
-0.00981936
-0.0102801
-0.0105136
-0.0105248
-0.0023398
-0.0026253
-0.00310679
-0.00335497
-0.00361503
-0.00417747
-0.00476117
-0.00513002
-0.00544481
-0.00601862
-0.00684297
-0.00755029
-0.00792128
-0.00813573
-0.00849445
-0.00907925
-0.00970504
-0.0101784
-0.0104448
-0.0104691
-0.00244449
-0.00269423
-0.00317892
-0.00349321
-0.00375215
-0.00426595
-0.00486605
-0.00526759
-0.00554397
-0.00603585
-0.00681207
-0.00753642
-0.00795743
-0.00819265
-0.00850576
-0.00901079
-0.00959483
-0.0100676
-0.0103521
-0.0104017
-0.00255402
-0.00277285
-0.00325158
-0.0036227
-0.00389343
-0.0043568
-0.00495435
-0.00539642
-0.00565951
-0.00606962
-0.00677515
-0.00750175
-0.00797204
-0.00824002
-0.00852869
-0.00896273
-0.00949127
-0.00995491
-0.0102454
-0.0103144
-0.00266612
-0.00286171
-0.00332465
-0.00374429
-0.00403795
-0.00445651
-0.00503068
-0.00550706
-0.00578343
-0.00612518
-0.00674179
-0.00744717
-0.00796175
-0.00827181
-0.00855433
-0.00893426
-0.00940027
-0.00984275
-0.0101335
-0.0102104
-0.00277887
-0.00295258
-0.00340595
-0.00386196
-0.00418341
-0.00456435
-0.00509892
-0.00559643
-0.00590222
-0.00619953
-0.00672316
-0.00738071
-0.00792597
-0.00828239
-0.0085721
-0.0089184
-0.0093281
-0.00973429
-0.0100204
-0.0100971
-0.0028942
-0.0030579
-0.00349221
-0.00397218
-0.00432518
-0.0046792
-0.00516614
-0.00566729
-0.00600524
-0.00628528
-0.00672629
-0.00731499
-0.00786559
-0.00826632
-0.00857618
-0.00890479
-0.00927213
-0.00963576
-0.00990916
-0.00998286
-0.00301217
-0.00316336
-0.00358478
-0.0040772
-0.00446115
-0.00480042
-0.00524007
-0.00572551
-0.00608843
-0.00637038
-0.00674706
-0.00726022
-0.00778965
-0.00822238
-0.0085608
-0.00888248
-0.00922135
-0.00954746
-0.00980048
-0.00987127
-0.00313298
-0.00328064
-0.00368441
-0.00417945
-0.00458993
-0.00492359
-0.00531863
-0.00577467
-0.00615157
-0.00644508
-0.00677841
-0.00722088
-0.00771132
-0.00815352
-0.0085188
-0.00884604
-0.00916794
-0.00946552
-0.00969348
-0.00975966
-0.00325595
-0.00339649
-0.00379191
-0.00428408
-0.00471086
-0.00504719
-0.00540562
-0.00582278
-0.00619767
-0.00650206
-0.00681039
-0.00719244
-0.0076365
-0.00806857
-0.00844869
-0.00878698
-0.0091021
-0.00938098
-0.00958605
-0.00964316
-0.0033831
-0.00351728
-0.00390459
-0.00438923
-0.00482449
-0.00516594
-0.00549733
-0.00587677
-0.00623584
-0.00654185
-0.00683119
-0.00716514
-0.00756132
-0.00797532
-0.00835879
-0.00870487
-0.00901941
-0.00928821
-0.0094773
-0.00952135
-0.00351564
-0.00364942
-0.00402247
-0.00449578
-0.00493222
-0.00527787
-0.00558725
-0.0059306
-0.00627077
-0.00657426
-0.00684722
-0.00713672
-0.00747657
-0.00785867
-0.00823907
-0.00859354
-0.00891675
-0.00918534
-0.00936965
-0.00940591
-0.00364956
-0.00377491
-0.00414596
-0.00461107
-0.00504132
-0.0053892
-0.00568336
-0.00598671
-0.0062959
-0.00658945
-0.00685501
-0.00711615
-0.00739702
-0.00772239
-0.00807596
-0.00842372
-0.00876095
-0.00904806
-0.00924532
-0.00929372
-0.00378906
-0.00390905
-0.00427259
-0.00472872
-0.00514853
-0.00549508
-0.00578253
-0.00605514
-0.0063226
-0.00658774
-0.006834
-0.00708136
-0.00732512
-0.00759139
-0.0078903
-0.00819683
-0.00850725
-0.0087914
-0.00900787
-0.00909826
-0.00393592
-0.00405245
-0.00440405
-0.00484699
-0.00525167
-0.00559036
-0.00587217
-0.00613229
-0.00637621
-0.00660362
-0.00680459
-0.00700962
-0.0072275
-0.00745993
-0.00772427
-0.00799665
-0.00826167
-0.00848764
-0.00863974
-0.0086699
-0.00408451
-0.00419877
-0.00454394
-0.0049728
-0.00536209
-0.00568757
-0.00595722
-0.00620601
-0.00644499
-0.00664526
-0.00677811
-0.00687529
-0.00697809
-0.00712267
-0.00733205
-0.00760258
-0.00792226
-0.00826614
-0.00857069
-0.00874629
-0.00423536
-0.00435469
-0.00469665
-0.00511064
-0.00548295
-0.00579006
-0.00603558
-0.00628047
-0.00656476
-0.00684209
-0.00701013
-0.00703352
-0.00698014
-0.00695834
-0.00700256
-0.00701686
-0.00694408
-0.00680355
-0.00664292
-0.00654492
-0.00439473
-0.00448883
-0.00481421
-0.00520898
-0.00558265
-0.0059124
-0.00613797
-0.00628062
-0.00641599
-0.00653785
-0.00662562
-0.00671891
-0.00681472
-0.00688009
-0.00693286
-0.00699407
-0.00704508
-0.00706917
-0.00706841
-0.00708864
-0.00464454
-0.00476608
-0.00499007
-0.0052658
-0.00553728
-0.00577455
-0.00597379
-0.0061834
-0.00640204
-0.00662003
-0.00681189
-0.00693636
-0.007
-0.00698294
-0.00689112
-0.00674905
-0.00654576
-0.00631796
-0.00613674
-0.00607928
-0.00471042
-0.00475324
-0.00500017
-0.00530021
-0.00555252
-0.00577716
-0.00597929
-0.00619008
-0.00640281
-0.00657173
-0.00666833
-0.00670999
-0.00674853
-0.00683876
-0.00698519
-0.00721925
-0.00753513
-0.00788004
-0.00820131
-0.00844586
-0.00492603
-0.00501083
-0.005172
-0.0053562
-0.00553885
-0.00573229
-0.00592651
-0.00615351
-0.00640111
-0.00661592
-0.00676475
-0.00685639
-0.00689336
-0.00687079
-0.00678366
-0.00662204
-0.00641919
-0.00621877
-0.00609826
-0.00612627
-0.00502926
-0.00508727
-0.00522105
-0.00536506
-0.00551151
-0.00567992
-0.00587818
-0.00613806
-0.0064192
-0.00664778
-0.00677546
-0.00682076
-0.00684905
-0.00687476
-0.00690367
-0.00693413
-0.00695371
-0.00695504
-0.0069569
-0.00701524
-0.00645651
-0.0101152
-0.0157253
-0.0202578
-0.0211174
-0.0199436
-0.0185893
-0.0172516
-0.0158091
-0.0144503
-0.0134297
-0.0127623
-0.0123846
-0.0121808
-0.0118706
-0.0113162
-0.0107222
-0.0102825
-0.00997004
-0.00968966
-0.00937263
-0.00901358
-0.00870962
-0.00855295
-0.00848527
-0.00840265
-0.00830947
-0.00823272
-0.00809604
-0.00783333
-0.00748555
-0.00713927
-0.00684374
-0.00660395
-0.00638104
-0.00615051
-0.00589987
-0.0056705
-0.0055218
-0.00540865
-0.00521492
-0.00493984
-0.00464269
-0.00432285
-0.00397014
-0.00364173
-0.00335004
-0.00306853
-0.00278953
-0.00250393
-0.00220311
-0.00189804
-0.00158631
-0.00126126
-0.000933837
-0.000619152
-0.000324434
4.89615e-06
0.000337518
0.000672003
0.00105128
0.0015068
0.0019325
0.00231163
0.00271397
0.00313697
0.00353949
0.00394684
0.00438363
0.00481307
0.00525103
0.00570586
0.00619696
0.00672135
0.00721199
0.00763894
0.00804983
0.0085588
0.00909632
0.00965398
0.0102079
0.0107501
0.0112971
0.0118469
0.0124227
0.0129921
0.0135953
0.014176
0.0147827
0.0153798
0.0160402
0.0166676
0.017336
0.0180265
0.0187145
0.0194699
0.0201903
0.021023
0.0216049
0.0222369
-0.00684374
-0.0102149
-0.0156197
-0.0200905
-0.0210254
-0.0199053
-0.0185689
-0.0172388
-0.0158
-0.0144429
-0.0134231
-0.0127559
-0.0123785
-0.0121757
-0.0118667
-0.0113127
-0.0107185
-0.0102788
-0.00996654
-0.00968647
-0.00936975
-0.00901078
-0.00870676
-0.00855019
-0.0084828
-0.00840043
-0.00830741
-0.00823087
-0.0080944
-0.00783181
-0.00748408
-0.00713787
-0.00684243
-0.00660275
-0.00637996
-0.00614954
-0.00589896
-0.00566959
-0.00552094
-0.00540793
-0.00521433
-0.00493926
-0.00464213
-0.00432233
-0.00396964
-0.00364123
-0.00334956
-0.00306808
-0.0027891
-0.00250353
-0.00220271
-0.00189766
-0.00158595
-0.00126091
-0.000933484
-0.000618796
-0.000324098
5.21134e-06
0.000337837
0.000672299
0.00105155
0.00150706
0.00193279
0.0023119
0.00271423
0.00313722
0.00353974
0.00394707
0.00438386
0.0048133
0.00525124
0.00570607
0.00619714
0.00672154
0.00721219
0.00763914
0.00804999
0.00855895
0.00909647
0.00965412
0.010208
0.0107503
0.0112973
0.0118471
0.0124229
0.0129922
0.0135954
0.0141761
0.0147828
0.0153799
0.0160403
0.0166677
0.0173361
0.0180266
0.0187146
0.01947
0.0201904
0.0210231
0.021605
0.0222369
-0.00730188
-0.010393
-0.0154813
-0.0198082
-0.0208661
-0.0198468
-0.0185382
-0.0172168
-0.0157836
-0.0144314
-0.0134156
-0.0127503
-0.0123731
-0.0121703
-0.0118619
-0.0113089
-0.0107154
-0.010276
-0.00996359
-0.00968356
-0.00936708
-0.00900831
-0.00870428
-0.00854776
-0.00848053
-0.00839835
-0.00830558
-0.00822937
-0.00809311
-0.00783049
-0.00748269
-0.0071365
-0.00684117
-0.00660164
-0.00637897
-0.00614863
-0.00589809
-0.00566872
-0.00552015
-0.00540733
-0.00521385
-0.00493877
-0.00464164
-0.00432188
-0.00396917
-0.00364076
-0.00334914
-0.00306767
-0.00278872
-0.00250318
-0.00220237
-0.00189732
-0.00158563
-0.0012606
-0.000933172
-0.000618481
-0.000323815
5.4807e-06
0.000338108
0.000672536
0.00105175
0.0015073
0.00193306
0.00231213
0.00271444
0.00313744
0.00353996
0.00394727
0.00438407
0.00481349
0.00525142
0.00570624
0.0061973
0.00672171
0.00721239
0.00763931
0.00805012
0.00855907
0.00909661
0.00965424
0.0102082
0.0107504
0.0112974
0.0118472
0.012423
0.0129923
0.0135955
0.0141762
0.0147829
0.01538
0.0160404
0.0166678
0.0173362
0.0180267
0.0187147
0.0194701
0.0201905
0.0210232
0.0216051
0.022237
-0.00774388
-0.0105861
-0.0153168
-0.0194475
-0.0206349
-0.0197496
-0.0184824
-0.0171756
-0.0157539
-0.0144123
-0.0134053
-0.0127449
-0.0123675
-0.0121627
-0.0118539
-0.0113033
-0.0107126
-0.0102741
-0.00996091
-0.00968014
-0.00936398
-0.00900601
-0.00870225
-0.00854541
-0.00847783
-0.00839576
-0.00830358
-0.00822794
-0.00809182
-0.00782898
-0.00748101
-0.00713489
-0.00683974
-0.00660036
-0.00637778
-0.00614751
-0.00589703
-0.00566771
-0.00551925
-0.00540665
-0.00521332
-0.00493826
-0.00464112
-0.00432137
-0.00396865
-0.00364025
-0.00334868
-0.00306724
-0.00278833
-0.00250283
-0.00220203
-0.00189698
-0.00158531
-0.00126028
-0.000932851
-0.000618156
-0.000323531
5.75201e-06
0.000338377
0.00067276
0.00105195
0.00150755
0.00193335
0.00231237
0.00271465
0.00313768
0.00354019
0.00394747
0.00438427
0.00481369
0.0052516
0.0057064
0.00619745
0.00672189
0.00721261
0.0076395
0.00805023
0.00855918
0.00909675
0.00965437
0.0102083
0.0107505
0.0112975
0.0118473
0.0124231
0.0129924
0.0135956
0.0141763
0.014783
0.0153801
0.0160405
0.0166679
0.0173363
0.0180268
0.0187148
0.0194702
0.0201905
0.0210234
0.0216054
0.0222371
-0.00817409
-0.0107746
-0.0151308
-0.0190529
-0.0203659
-0.0196279
-0.0184084
-0.0171179
-0.0157114
-0.0143855
-0.0133918
-0.012739
-0.0123616
-0.0121519
-0.0118411
-0.0112945
-0.0107096
-0.0102735
-0.0099588
-0.00967591
-0.00935988
-0.00900385
-0.0087012
-0.00854355
-0.00847459
-0.00839232
-0.0083011
-0.00822635
-0.00809025
-0.00782694
-0.00747875
-0.00713287
-0.00683806
-0.0065988
-0.00637615
-0.00614592
-0.00589559
-0.0056664
-0.00551806
-0.00540569
-0.0052126
-0.00493762
-0.00464047
-0.0043207
-0.003968
-0.00363965
-0.00334814
-0.00306673
-0.00278788
-0.00250244
-0.00220163
-0.00189658
-0.00158495
-0.00125993
-0.000932502
-0.0006178
-0.000323219
6.04564e-06
0.000338661
0.000672994
0.00105216
0.00150782
0.00193365
0.00231262
0.00271488
0.00313792
0.00354042
0.00394768
0.00438449
0.00481391
0.0052518
0.00570658
0.00619761
0.00672209
0.00721285
0.0076397
0.00805033
0.00855929
0.0090969
0.00965451
0.0102084
0.0107506
0.0112976
0.0118474
0.0124232
0.0129925
0.0135957
0.0141764
0.0147831
0.0153801
0.0160406
0.016668
0.0173363
0.0180268
0.0187148
0.0194703
0.0201906
0.0210235
0.0216056
0.0222372
-0.00858609
-0.0109484
-0.0149421
-0.018652
-0.0200791
-0.0194953
-0.0183275
-0.0170517
-0.0156608
-0.0143533
-0.0133758
-0.0127327
-0.0123549
-0.0121379
-0.0118235
-0.0112822
-0.010706
-0.010274
-0.00995739
-0.00967092
-0.00935455
-0.00900161
-0.00870132
-0.00854262
-0.00847116
-0.00838821
-0.00829827
-0.00822453
-0.00808814
-0.00782399
-0.00747557
-0.00713028
-0.00683616
-0.00659699
-0.00637401
-0.00614367
-0.00589362
-0.00566467
-0.00551641
-0.00540422
-0.00521152
-0.00493676
-0.00463959
-0.0043198
-0.00396717
-0.00363894
-0.00334749
-0.00306611
-0.00278736
-0.00250199
-0.00220118
-0.00189611
-0.00158452
-0.00125953
-0.00093211
-0.000617398
-0.000322866
6.36673e-06
0.000338959
0.00067325
0.00105241
0.00150811
0.00193398
0.00231288
0.00271513
0.00313818
0.00354067
0.0039479
0.00438473
0.00481413
0.00525201
0.00570678
0.00619779
0.00672232
0.00721314
0.00763993
0.00805045
0.00855942
0.00909708
0.00965468
0.0102086
0.0107508
0.0112978
0.0118475
0.0124233
0.0129926
0.0135958
0.0141766
0.0147832
0.0153802
0.0160407
0.0166681
0.0173364
0.0180269
0.0187149
0.0194703
0.0201907
0.0210236
0.021606
0.0222373
-0.00896741
-0.0111125
-0.0147725
-0.0182583
-0.0197773
-0.019352
-0.0182422
-0.0169803
-0.0156045
-0.0143171
-0.0133579
-0.0127257
-0.0123474
-0.0121217
-0.0118025
-0.0112672
-0.0107015
-0.0102751
-0.00995657
-0.00966552
-0.00934821
-0.00899909
-0.00870223
-0.00854253
-0.00846788
-0.00838404
-0.00829564
-0.00822281
-0.00808545
-0.00781982
-0.00747102
-0.00712676
-0.0068339
-0.006595
-0.00637142
-0.00614079
-0.00589114
-0.00566251
-0.00551411
-0.00540198
-0.00520986
-0.00493556
-0.00463837
-0.00431854
-0.00396611
-0.00363808
-0.00334668
-0.00306533
-0.00278671
-0.00250145
-0.00220063
-0.00189553
-0.00158398
-0.00125905
-0.000931642
-0.000616913
-0.000322438
6.72512e-06
0.000339275
0.000673543
0.00105269
0.00150843
0.00193432
0.00231317
0.0027154
0.00313844
0.00354093
0.00394814
0.00438497
0.00481437
0.00525224
0.005707
0.00619799
0.00672257
0.00721345
0.00764018
0.00805056
0.00855956
0.00909728
0.00965487
0.0102088
0.010751
0.0112979
0.0118477
0.0124234
0.0129928
0.013596
0.0141767
0.0147833
0.0153803
0.0160408
0.0166682
0.0173365
0.018027
0.018715
0.0194704
0.0201907
0.0210238
0.0216065
0.0222376
-0.00931643
-0.0112795
-0.0146342
-0.0178716
-0.0194531
-0.0191925
-0.0181518
-0.0169052
-0.0155439
-0.0142773
-0.0133378
-0.0127177
-0.0123392
-0.0121042
-0.0117795
-0.0112503
-0.0106961
-0.0102762
-0.00995598
-0.00965999
-0.00934137
-0.00899629
-0.00870338
-0.00854284
-0.00846484
-0.00838034
-0.00829394
-0.00822184
-0.00808261
-0.0078145
-0.00746488
-0.00712189
-0.0068309
-0.00659262
-0.00636841
-0.00613746
-0.00588841
-0.00566018
-0.00551124
-0.00539882
-0.00520745
-0.00493383
-0.00463663
-0.00431682
-0.00396478
-0.00363706
-0.00334568
-0.00306433
-0.00278588
-0.0025008
-0.00219998
-0.00189481
-0.0015833
-0.00125844
-0.000931048
-0.000616277
-0.000321871
7.15351e-06
0.000339618
0.000673889
0.00105305
0.00150878
0.00193468
0.00231351
0.00271572
0.00313873
0.0035412
0.00394839
0.00438522
0.00481461
0.00525248
0.00570725
0.00619821
0.00672284
0.0072138
0.00764045
0.00805069
0.00855972
0.00909751
0.00965509
0.0102091
0.0107512
0.0112981
0.0118478
0.0124236
0.0129929
0.0135961
0.0141768
0.0147834
0.0153804
0.0160409
0.0166683
0.0173366
0.0180271
0.018715
0.0194706
0.0201908
0.0210239
0.0216071
0.022238
-0.00964159
-0.011453
-0.0145215
-0.0174853
-0.0191019
-0.0190147
-0.018058
-0.0168289
-0.0154802
-0.0142342
-0.0133152
-0.0127082
-0.0123301
-0.0120859
-0.0117553
-0.0112322
-0.0106898
-0.010277
-0.00995541
-0.00965446
-0.00933436
-0.00899333
-0.00870454
-0.00854326
-0.00846202
-0.00837735
-0.00829358
-0.00822222
-0.00808029
-0.00780858
-0.00745738
-0.00711558
-0.0068268
-0.00658951
-0.00636488
-0.0061338
-0.00588572
-0.00565805
-0.00550815
-0.00539495
-0.0052043
-0.0049315
-0.00463423
-0.00431449
-0.0039631
-0.00363587
-0.00334451
-0.00306312
-0.00278484
-0.00249996
-0.00219917
-0.00189394
-0.00158247
-0.0012577
-0.000930293
-0.000615411
-0.000321061
7.7287e-06
0.000340026
0.000674313
0.00105348
0.00150915
0.00193506
0.00231391
0.00271608
0.00313903
0.0035415
0.00394868
0.00438548
0.00481483
0.00525272
0.00570751
0.00619846
0.00672315
0.0072142
0.00764076
0.00805082
0.00855989
0.00909777
0.00965534
0.0102093
0.0107514
0.0112984
0.011848
0.0124238
0.0129931
0.0135963
0.014177
0.0147835
0.0153806
0.0160411
0.0166684
0.0173367
0.0180273
0.0187151
0.0194707
0.0201908
0.0210239
0.0216078
0.0222386
-0.00994845
-0.0116197
-0.0144233
-0.0171017
-0.0187281
-0.01882
-0.0179621
-0.0167528
-0.0154137
-0.0141873
-0.0132895
-0.0126969
-0.0123203
-0.0120669
-0.01173
-0.0112128
-0.0106826
-0.0102774
-0.00995482
-0.00964893