/*--------------------------------*- C++ -*----------------------------------*\
| =========                 |                                                 |
| \\      /  F ield         | OpenFOAM: The Open Source CFD Toolbox           |
|  \\    /   O peration     | Version:  2506                                  |
|   \\  /    A nd           | Website:  www.openfoam.com                      |
|    \\/     M anipulation  |                                                 |
\*---------------------------------------------------------------------------*/
FoamFile
{
    version     2.0;
    format      ascii;
    arch        "LSB;label=32;scalar=64";
    class       volScalarField;
    location    "9.95";
    object      p;
}
// * * * * * * * * * * * * * * * * * * * * * * * * * * * * * * * * * * * * * //

dimensions      [0 2 -2 0 0 0 0];

internalField   nonuniform List<scalar> 
9600
(
3.16944e-11
-0.00150361
0.00149825
0.000579621
0.00180196
0.000310043
-0.00108963
-0.00402795
-0.00295537
-0.00176336
-0.00247171
-0.00276232
0.000129078
-0.000876376
0.000332458
-0.00117088
-0.000927107
-0.00124333
-0.00220676
-0.00197308
3.61892e-08
-0.00150564
0.00150083
0.000571497
0.00180794
0.00028984
-0.00109098
-0.00401016
-0.00296547
-0.00175976
-0.00246174
-0.0027764
0.000141114
-0.000935011
0.000345019
-0.00124404
-0.000925879
-0.00137748
-0.00219578
-0.00228683
-4.27221e-07
-0.00150782
0.00150363
0.000561079
0.00181538
0.000260318
-0.00108411
-0.00398238
-0.00298267
-0.00176043
-0.00245483
-0.00279867
0.000155262
-0.000979132
0.000346517
-0.00133403
-0.000941995
-0.00151973
-0.00219334
-0.00264202
-1.19526e-06
-0.00151019
0.00150539
0.000547796
0.00181418
0.000222317
-0.00107812
-0.0039488
-0.00300866
-0.00176655
-0.00244764
-0.00282838
0.000161142
-0.00105621
0.00032343
-0.00142614
-0.000975179
-0.00163839
-0.00221837
-0.00294627
-2.22414e-06
-0.00151303
0.00150633
0.000530101
0.00180442
0.000175686
-0.00107599
-0.00390837
-0.00304145
-0.00177496
-0.00243864
-0.00286394
0.000161113
-0.00114703
0.000294992
-0.00152208
-0.00100534
-0.0017488
-0.00227077
-0.00317706
-3.58981e-06
-0.00151647
0.00150653
0.000507198
0.0017891
0.000121584
-0.00107501
-0.00386064
-0.00307749
-0.00178346
-0.00242951
-0.00290076
0.000159196
-0.00124266
0.000267933
-0.00161744
-0.00102876
-0.00185765
-0.00233993
-0.00336424
-5.3555e-06
-0.00152054
0.00150577
0.000479029
0.00177026
6.21721e-05
-0.00107252
-0.00380612
-0.00311322
-0.00179135
-0.00242137
-0.00293651
0.000156984
-0.00133993
0.000238873
-0.00170834
-0.00105797
-0.00195763
-0.00243167
-0.00352646
-7.5784e-06
-0.00152519
0.00150387
0.000445908
0.00174932
-4.71276e-07
-0.00106764
-0.00374519
-0.00314619
-0.00179843
-0.00241444
-0.0029712
0.000155458
-0.00143876
0.000205496
-0.00179446
-0.00110062
-0.00204422
-0.00255535
-0.00366802
-1.03133e-05
-0.0015303
0.00150079
0.000408273
0.00172741
-6.48208e-05
-0.00106054
-0.00367687
-0.00317541
-0.00180454
-0.00240873
-0.00300537
0.000154607
-0.00153935
0.000166525
-0.00187406
-0.00115921
-0.00211618
-0.00271124
-0.00379119
-1.35904e-05
-0.00153573
0.00149657
0.000366582
0.00170523
-0.000129747
-0.00105178
-0.00359532
-0.00320127
-0.00180953
-0.00240434
-0.00303882
0.000153591
-0.0016406
0.000120354
-0.00194395
-0.00123629
-0.00217415
-0.00289629
-0.00390374
-1.74048e-05
-0.00154136
0.00149125
0.000321308
0.00168306
-0.000194391
-0.00104236
-0.00349835
-0.00322492
-0.00181342
-0.0024016
-0.00307041
0.000151493
-0.00174019
6.55339e-05
-0.00200187
-0.0013349
-0.00222011
-0.00310663
-0.00401612
-2.17256e-05
-0.00154715
0.00148481
0.000272962
0.0016609
-0.00025816
-0.00103348
-0.00341163
-0.00324762
-0.00181644
-0.002401
-0.0030988
0.000147213
-0.00183536
5.4687e-07
-0.00204741
-0.00145732
-0.00225711
-0.00333641
-0.0041387
-2.65099e-05
-0.00155315
0.00147716
0.000222084
0.00163856
-0.000320735
-0.00102606
-0.00332962
-0.00327056
-0.00181889
-0.00240292
-0.00312374
0.000139361
-0.00192396
-7.72101e-05
-0.0020808
-0.00160454
-0.00228932
-0.00357745
-0.00428012
-3.17143e-05
-0.00155941
0.00146816
0.000169259
0.00161564
-0.000382053
-0.00102062
-0.00324785
-0.00329472
-0.00182085
-0.00240744
-0.00314707
0.000126525
-0.00200489
-0.000171576
-0.00210188
-0.00177599
-0.00232224
-0.00382007
-0.00444585
-3.73111e-05
-0.00156595
0.00145771
0.00011516
0.00159144
-0.000442243
-0.00101766
-0.00316539
-0.00332069
-0.00182221
-0.00241441
-0.00317172
0.000107391
-0.00207766
-0.000286611
-0.00211053
-0.00196918
-0.00236303
-0.00405439
-0.00463767
-4.33056e-05
-0.00157274
0.00144572
6.05373e-05
0.00156512
-0.000501497
-0.00101779
-0.00308252
-0.00334874
-0.00182285
-0.00242374
-0.00319993
8.06984e-05
-0.0021416
-0.000424814
-0.0021088
-0.00217959
-0.00241918
-0.00427206
-0.00485493
-4.97437e-05
-0.0015797
0.00143216
6.10129e-06
0.00153585
-0.00055997
-0.00102163
-0.00299922
-0.00337911
-0.00182279
-0.00243534
-0.00323242
4.55461e-05
-0.00219557
-0.000586768
-0.00210069
-0.00240127
-0.00249818
-0.00446706
-0.00509415
-5.67059e-05
-0.00158678
0.00141694
-4.7645e-05
0.00150297
-0.000617616
-0.00102971
-0.00291545
-0.00341213
-0.00182223
-0.00244886
-0.0032688
1.6372e-06
-0.00223906
-0.000771144
-0.00209039
-0.00262859
-0.00260623
-0.00463456
-0.00534977
-6.42906e-05
-0.00159393
0.00139996
-0.000100469
0.00146595
-0.000674102
-0.00104246
-0.00283115
-0.00344805
-0.0018215
-0.00246363
-0.00330843
-5.11669e-05
-0.00227261
-0.000975166
-0.00208197
-0.00285622
-0.00274635
-0.00477208
-0.00561529
-7.25958e-05
-0.00160116
0.00138102
-0.000152313
0.00142434
-0.000728892
-0.00106033
-0.00274619
-0.00348688
-0.00182135
-0.00247856
-0.00335131
-0.000113201
-0.00229693
-0.0011958
-0.00207972
-0.00307921
-0.00291937
-0.00488107
-0.00588333
-8.17077e-05
-0.0016085
0.00135991
-0.000203179
0.00137768
-0.000781346
-0.00108378
-0.00266048
-0.00352844
-0.00182259
-0.00249257
-0.00339848
-0.000184257
-0.00231278
-0.00143028
-0.00208833
-0.00329372
-0.00312415
-0.00496504
-0.00614468
-9.17041e-05
-0.00161597
0.00133636
-0.000253059
0.00132548
-0.000830808
-0.00111335
-0.00257405
-0.00357238
-0.00182621
-0.00250461
-0.00345155
-0.000263485
-0.00232101
-0.00167752
-0.00211101
-0.00349524
-0.00335986
-0.00502946
-0.00638799
-0.000102648
-0.00162366
0.0013101
-0.000301864
0.00126718
-0.000876679
-0.00114954
-0.00248699
-0.0036181
-0.00183383
-0.00251322
-0.00351165
-0.000350822
-0.00232213
-0.00193642
-0.00215009
-0.00367946
-0.00362621
-0.00508242
-0.00660043
-0.000114569
-0.00163163
0.00128084
-0.000349357
0.0012022
-0.000918418
-0.00119281
-0.00239956
-0.00366492
-0.0018472
-0.0025165
-0.00357998
-0.000447572
-0.00231523
-0.00220449
-0.00221013
-0.00384294
-0.00392013
-0.00513399
-0.00676889
-0.000127481
-0.00163995
0.00124819
-0.000395203
0.00112994
-0.000955562
-0.00124356
-0.00231219
-0.00371181
-0.00186827
-0.00251249
-0.00365729
-0.000555814
-0.00229907
-0.00247954
-0.00229659
-0.00398128
-0.00423559
-0.00519745
-0.00688381
-0.000141408
-0.00164872
0.00121177
-0.000439034
0.00104979
-0.00098779
-0.00130206
-0.00222564
-0.00375723
-0.00189946
-0.00249963
-0.00374236
-0.000678116
-0.00227345
-0.00275899
-0.00241436
-0.00409084
-0.0045651
-0.00528893
-0.00694201
-0.000156347
-0.00165805
0.00117119
-0.000480429
0.000961049
-0.00101493
-0.00136809
-0.00214105
-0.00379952
-0.00194331
-0.00247741
-0.00383307
-0.000816993
-0.00223773
-0.00303899
-0.00256981
-0.00417083
-0.00489698
-0.00542257
-0.0069479
-0.000172297
-0.00166798
0.00112592
-0.000518926
0.000863139
-0.00103682
-0.00144128
-0.00205988
-0.00383683
-0.00200232
-0.00244631
-0.00392632
-0.00097553
-0.00219143
-0.00331361
-0.00276956
-0.00422499
-0.00521491
-0.0056071
-0.00691602
-0.000189288
-0.00167857
0.00107543
-0.000554031
0.000755645
-0.00105305
-0.00152109
-0.00198386
-0.00386702
-0.00207861
-0.00240702
-0.00401852
-0.00115803
-0.00213683
-0.0035744
-0.00301654
-0.00426237
-0.00550105
-0.00584441
-0.00687268
-0.000207325
-0.00168989
0.00101912
-0.000585217
0.000638192
-0.00106451
-0.00160635
-0.00191525
-0.00388744
-0.00217345
-0.00236203
-0.00410476
-0.00136804
-0.00207967
-0.00381211
-0.00330956
-0.00429693
-0.00573832
-0.00612607
-0.00685181
-0.000226417
-0.0017019
0.000956281
-0.000612051
0.000510695
-0.00107213
-0.00169571
-0.0018569
-0.00389528
-0.00228729
-0.00231549
-0.00417944
-0.00160656
-0.00202695
-0.0040179
-0.00364386
-0.00434542
-0.00591593
-0.00643511
-0.00688469
-0.000246649
-0.00171452
0.000886226
-0.00063424
0.000373326
-0.00107672
-0.00178701
-0.00181203
-0.00388897
-0.00241997
-0.00225682
-0.0042368
-0.00187271
-0.0019876
-0.00418346
-0.00401058
-0.00442616
-0.00603261
-0.00674757
-0.00699051
-0.00026815
-0.00172763
0.000808314
-0.000651641
0.000226507
-0.00107959
-0.00187743
-0.00178375
-0.00386795
-0.0025697
-0.00221918
-0.00427171
-0.00216335
-0.00197392
-0.00430368
-0.00439656
-0.00455455
-0.00609676
-0.00703424
-0.00717133
-0.000291045
-0.00174101
0.000721851
-0.000664307
7.10847e-05
-0.00108257
-0.00196408
-0.0017746
-0.00383242
-0.00273244
-0.00219986
-0.00428182
-0.00247269
-0.00199692
-0.00437872
-0.0047856
-0.00473836
-0.00612511
-0.00726892
-0.00741102
-0.000315524
-0.0017544
0.000626309
-0.000672508
-9.15984e-05
-0.00108793
-0.00204402
-0.00178658
-0.00378408
-0.00290295
-0.0022052
-0.00426668
-0.00279192
-0.00206442
-0.00441345
-0.00516071
-0.00497725
-0.00614076
-0.00743858
-0.00768232
-0.000341837
-0.00176753
0.000521227
-0.000676656
-0.000259756
-0.0010983
-0.00211466
-0.0018208
-0.00372629
-0.00307542
-0.00224024
-0.00423113
-0.00311073
-0.00218204
-0.00441771
-0.00550519
-0.00526387
-0.006168
-0.00754437
-0.00795066
-0.000370237
-0.00178017
0.00040625
-0.000677461
-0.000431232
-0.00111702
-0.00217285
-0.00187631
-0.00366349
-0.00324397
-0.0023077
-0.00418072
-0.00341892
-0.00235189
-0.00440463
-0.00580583
-0.00558671
-0.00622507
-0.00759942
-0.00818422
-0.000401025
-0.00179212
0.000281423
-0.00067615
-0.000603389
-0.00114735
-0.00221763
-0.00195078
-0.00360065
-0.00340277
-0.00240828
-0.00412398
-0.00370793
-0.00257182
-0.00438889
-0.00605535
-0.00593118
-0.00632133
-0.00762353
-0.00836498
-0.000434512
-0.0018032
0.000146963
-0.000674185
-0.000773076
-0.0011921
-0.00224865
-0.00204038
-0.00354372
-0.00354829
-0.00254089
-0.00406943
-0.00397155
-0.00283634
-0.00438541
-0.00625094
-0.00628279
-0.0064596
-0.00763399
-0.00849223
-0.000471042
-0.00181324
3.24173e-06
-0.000672121
-0.000936799
-0.0012536
-0.00226622
-0.00214021
-0.00349895
-0.00368024
-0.0027012
-0.00402496
-0.00420491
-0.00313655
-0.00440766
-0.00639332
-0.00662801
-0.00663985
-0.00764301
-0.00857596
-0.00051097
-0.00182215
-0.000149117
-0.000673966
-0.00109105
-0.0013332
-0.0022785
-0.00224547
-0.00347029
-0.00379908
-0.00288412
-0.00399816
-0.004406
-0.00346125
-0.00446608
-0.00648831
-0.00695175
-0.00686059
-0.00766083
-0.00862552
-0.000554709
-0.00182963
-0.000309198
-0.00068155
-0.00123274
-0.00143156
-0.00228841
-0.0023509
-0.00345931
-0.00390608
-0.00308469
-0.00399649
-0.00457697
-0.00379696
-0.0045661
-0.00654843
-0.00723966
-0.00711495
-0.00769816
-0.00864745
-0.000602914
-0.00183525
-0.000475623
-0.000698191
-0.00135926
-0.00154751
-0.00230113
-0.00245214
-0.00346705
-0.00400403
-0.00329685
-0.00402545
-0.00472344
-0.00413091
-0.00470682
-0.00658843
-0.0074826
-0.00739134
-0.00776728
-0.0086475
-0.000656263
-0.00183878
-0.000646782
-0.000727149
-0.00146877
-0.00167805
-0.00232302
-0.00254743
-0.00350159
-0.00409606
-0.00351467
-0.00408701
-0.00485259
-0.00445405
-0.00488256
-0.00662121
-0.00767849
-0.00767566
-0.00787835
-0.00863525
-0.000715433
-0.00184026
-0.000820324
-0.00077159
-0.00156084
-0.00181856
-0.00235983
-0.00263688
-0.00353955
-0.0041853
-0.00373445
-0.00417986
-0.00497139
-0.00475998
-0.00508608
-0.00665821
-0.00783061
-0.00795173
-0.00803313
-0.00862812
-0.00078097
-0.00184008
-0.000993091
-0.000834563
-0.00163675
-0.00196275
-0.00241573
-0.00272351
-0.00358846
-0.00427436
-0.00395356
-0.00430092
-0.00508609
-0.00504465
-0.00530949
-0.00670782
-0.00794565
-0.00820595
-0.00822418
-0.0086472
-0.000853147
-0.00183903
-0.0011617
-0.000918091
-0.00170073
-0.00210411
-0.00249172
-0.00281285
-0.00364722
-0.00436495
-0.00416904
-0.00444549
-0.00520171
-0.00530654
-0.00554477
-0.00677447
-0.00803253
-0.00843123
-0.00843881
-0.00870644
-0.000931909
-0.00183848
-0.00132263
-0.00102302
-0.00176018
-0.0022378
-0.00258481
-0.00290897
-0.00371604
-0.00445687
-0.00437776
-0.0046066
-0.00532065
-0.00554766
-0.0057863
-0.00686061
-0.00810115
-0.0086241
-0.00866135
-0.00880767
-0.00101677
-0.0018405
-0.00147325
-0.00114855
-0.00182291
-0.00236164
-0.00268924
-0.00301309
-0.00379645
-0.00455235
-0.00457776
-0.0047781
-0.00544368
-0.00577169
-0.00603123
-0.00696766
-0.00816004
-0.00878415
-0.00887885
-0.00894306
-0.00110706
-0.00184731
-0.00161254
-0.00129168
-0.00189559
-0.00247559
-0.00279996
-0.00312543
-0.00388833
-0.00465315
-0.00476932
-0.00495542
-0.00557149
-0.00598066
-0.00627606
-0.00709551
-0.00821711
-0.00891562
-0.00908244
-0.00909936
-0.00120199
-0.00186087
-0.00174046
-0.00144701
-0.00198261
-0.00258381
-0.00291353
-0.00324469
-0.00399024
-0.00476061
-0.00495436
-0.00513567
-0.00570419
-0.00617533
-0.00651661
-0.0072435
-0.00827969
-0.00902311
-0.00926628
-0.00926603
-0.0013007
-0.00188314
-0.00185853
-0.00160854
-0.00208594
-0.00269324
-0.00302842
-0.00336786
-0.00410095
-0.00487478
-0.00513414
-0.00531746
-0.0058411
-0.00635605
-0.00674904
-0.00740957
-0.00835414
-0.0091118
-0.00942739
-0.00943756
-0.00140207
-0.00191504
-0.00196942
-0.00177189
-0.00220608
-0.00280991
-0.00314627
-0.00349152
-0.00421679
-0.00499485
-0.00531111
-0.00550149
-0.00598205
-0.00652332
-0.00696844
-0.00758724
-0.00844626
-0.00919112
-0.00956302
-0.00960587
-0.00150556
-0.00195767
-0.00207544
-0.00193419
-0.0023385
-0.00293732
-0.00327218
-0.00361525
-0.00433082
-0.00511782
-0.00548748
-0.00568881
-0.00612691
-0.0066783
-0.00717196
-0.00776913
-0.00855648
-0.00927308
-0.00967643
-0.00976028
-0.00160984
-0.00200789
-0.00218087
-0.00209625
-0.00248201
-0.00307921
-0.00341243
-0.00374108
-0.00443888
-0.00523832
-0.00566309
-0.00588024
-0.00627698
-0.00682295
-0.00735698
-0.00794822
-0.00867859
-0.00936504
-0.00977798
-0.00989265
-0.00171655
-0.00206793
-0.00228427
-0.00225217
-0.00262911
-0.00323486
-0.00357238
-0.00387337
-0.0045397
-0.00535202
-0.00583579
-0.00607717
-0.00643721
-0.00696236
-0.0075228
-0.00811958
-0.00880623
-0.00946515
-0.00987948
-0.0100058
-0.00182555
-0.00214875
-0.00239066
-0.00239855
-0.00277545
-0.00339952
-0.00375293
-0.00401518
-0.00463312
-0.00545379
-0.00600067
-0.00627742
-0.00661008
-0.00710303
-0.00767189
-0.00827862
-0.00893437
-0.00956598
-0.00998596
-0.0101133
-0.00192802
-0.00220574
-0.00250752
-0.00258201
-0.00293944
-0.00356606
-0.00394256
-0.00416814
-0.0047217
-0.00554082
-0.00615164
-0.0064763
-0.00679395
-0.00725034
-0.00780965
-0.00842183
-0.00905917
-0.00966411
-0.0100921
-0.0102243
-0.00203781
-0.00229355
-0.00262686
-0.00275705
-0.00309745
-0.00372108
-0.00413699
-0.00434444
-0.00482237
-0.00561704
-0.00628499
-0.00666916
-0.00698704
-0.00741017
-0.0079457
-0.00855072
-0.00917783
-0.00975981
-0.0101897
-0.0103374
-0.00215116
-0.00237867
-0.0027503
-0.00293778
-0.00325801
-0.0038655
-0.00433051
-0.00454423
-0.00494709
-0.0056902
-0.00639748
-0.0068481
-0.00718393
-0.00758084
-0.00808635
-0.00867165
-0.00928709
-0.00985186
-0.0102762
-0.0104448
-0.00226931
-0.00247566
-0.00287393
-0.00312055
-0.00342868
-0.00400516
-0.00451248
-0.00475831
-0.00509859
-0.00576767
-0.00648891
-0.00700372
-0.00737515
-0.00775876
-0.00823463
-0.00879244
-0.00938824
-0.00994009
-0.0103553
-0.0105381
-0.00239685
-0.00258488
-0.00299413
-0.00329504
-0.00360579
-0.00414626
-0.00468139
-0.00497577
-0.00527644
-0.00586254
-0.00656743
-0.00713453
-0.00755278
-0.00793991
-0.00839077
-0.00891737
-0.00948573
-0.0100235
-0.0104298
-0.0106168
-0.00253097
-0.00270742
-0.0031157
-0.0034649
-0.00379029
-0.00429185
-0.00483602
-0.00518313
-0.00547436
-0.00598228
-0.00664442
-0.00724324
-0.00770944
-0.00811465
-0.00855169
-0.00904913
-0.00958491
-0.0101026
-0.0105013
-0.0106866
-0.0026662
-0.00282731
-0.00324774
-0.00364424
-0.0039823
-0.00444393
-0.00497855
-0.00537204
-0.00567863
-0.00612602
-0.00672856
-0.00733426
-0.00784225
-0.00827314
-0.00870917
-0.0091866
-0.009689
-0.0101785
-0.0105679
-0.0107504
-0.00280704
-0.00296436
-0.00338595
-0.00381562
-0.00417462
-0.00460465
-0.00511687
-0.00554325
-0.00587785
-0.00628811
-0.0068284
-0.00741655
-0.00795325
-0.00841296
-0.0088547
-0.00932342
-0.0097999
-0.0102562
-0.0106313
-0.0108115
-0.00295549
-0.00310802
-0.00352587
-0.00397986
-0.00436562
-0.00477561
-0.00525992
-0.00570246
-0.00606625
-0.00646029
-0.00694686
-0.00749865
-0.00804358
-0.00853223
-0.00898413
-0.00944972
-0.00991283
-0.0103375
-0.0106909
-0.0108672
-0.00310974
-0.00326101
-0.00367284
-0.00414275
-0.00455555
-0.00495486
-0.00540735
-0.0058503
-0.0062371
-0.00662722
-0.00707626
-0.00758893
-0.00811909
-0.00862552
-0.00909367
-0.00955943
-0.0100203
-0.0104245
-0.0107511
-0.0109184
-0.00326818
-0.00341646
-0.00382895
-0.00430876
-0.0047402
-0.00513637
-0.00556202
-0.00599459
-0.00639405
-0.00678324
-0.00720798
-0.0076889
-0.00819317
-0.00869629
-0.00917719
-0.00964349
-0.0101053
-0.0105051
-0.0108109
-0.0109682
-0.00343362
-0.0035791
-0.00398965
-0.0044744
-0.00491937
-0.00531712
-0.00572266
-0.00614197
-0.00654365
-0.00692821
-0.00732952
-0.00778327
-0.00826588
-0.00875632
-0.00924154
-0.00970901
-0.0101644
-0.0105648
-0.0108579
-0.0110034
-0.00360644
-0.00375409
-0.00415637
-0.00463926
-0.00509409
-0.00549566
-0.00588382
-0.00628633
-0.00668566
-0.00706862
-0.00744828
-0.00786454
-0.00831853
-0.00879181
-0.00927413
-0.00974982
-0.0102058
-0.0106121
-0.010906
-0.0110412
-0.00378241
-0.00392474
-0.00432921
-0.00481497
-0.00527112
-0.00567352
-0.00604931
-0.0064303
-0.00681451
-0.00719623
-0.00756895
-0.00794972
-0.00836061
-0.00880058
-0.0092578
-0.00972631
-0.0101836
-0.0106031
-0.0109235
-0.0110808
-0.00396518
-0.00410479
-0.00450577
-0.00499151
-0.00544675
-0.00584785
-0.00621654
-0.00658209
-0.00694036
-0.00730189
-0.00766796
-0.00803128
-0.00840473
-0.00880367
-0.00922273
-0.0096608
-0.0100913
-0.0104855
-0.0108027
-0.0109873
-0.00415574
-0.0042956
-0.00468737
-0.00516548
-0.00561737
-0.00601468
-0.00637938
-0.00673845
-0.00708041
-0.00741126
-0.00774124
-0.00807326
-0.0084163
-0.00878143
-0.0091713
-0.00958981
-0.0100151
-0.0103897
-0.0106604
-0.0107727
-0.00434926
-0.00448986
-0.00487788
-0.00534809
-0.005788
-0.006174
-0.00653824
-0.00690044
-0.00724093
-0.00754643
-0.00781143
-0.0080586
-0.00832128
-0.00860862
-0.00892973
-0.00930539
-0.00972809
-0.0101981
-0.0106529
-0.0109513
-0.00454591
-0.00468835
-0.00507494
-0.00554041
-0.00596548
-0.00632561
-0.00667429
-0.00706312
-0.00746717
-0.00783662
-0.00808632
-0.00822292
-0.00836888
-0.00856498
-0.00876746
-0.00892282
-0.00899175
-0.00895193
-0.00884879
-0.00882144
-0.00475642
-0.00488453
-0.00525457
-0.00570578
-0.00614105
-0.00649023
-0.00676764
-0.00706194
-0.00736881
-0.00766752
-0.00793968
-0.00817401
-0.0083822
-0.00858265
-0.00875153
-0.00889989
-0.00904537
-0.00917903
-0.00930713
-0.00946092
-0.00502082
-0.00517486
-0.00545296
-0.00579054
-0.00612602
-0.00643183
-0.00674998
-0.00709945
-0.0074539
-0.00781415
-0.00814249
-0.00841607
-0.00861112
-0.00875109
-0.00885279
-0.00886701
-0.00880752
-0.00871997
-0.00865444
-0.00868026
-0.00513817
-0.00521818
-0.00551277
-0.0058714
-0.00620264
-0.0065012
-0.00681802
-0.00717088
-0.00752323
-0.00784292
-0.00809151
-0.00828846
-0.00848771
-0.00871039
-0.00898581
-0.00934451
-0.00977253
-0.0102318
-0.0106824
-0.0110662
-0.00536535
-0.00548503
-0.00570415
-0.0059592
-0.00622488
-0.0065004
-0.00682593
-0.00720511
-0.00758409
-0.00794262
-0.00825673
-0.00850515
-0.00868864
-0.00881899
-0.00888805
-0.00886992
-0.00878585
-0.00870161
-0.00868799
-0.00881226
-0.00549892
-0.00560686
-0.00579479
-0.00600657
-0.00623664
-0.00649532
-0.00683306
-0.00724785
-0.0076722
-0.00805004
-0.00834534
-0.00856076
-0.00873413
-0.00891469
-0.00911429
-0.00929643
-0.00943242
-0.00952789
-0.00962658
-0.00980319
-0.000615017
-0.00331751
-0.0105609
-0.0159513
-0.0171414
-0.0160314
-0.0144786
-0.0132864
-0.0126875
-0.0125768
-0.0127731
-0.0130516
-0.0131354
-0.0129758
-0.0128339
-0.0128939
-0.0130932
-0.0133111
-0.0134324
-0.0134312
-0.0134844
-0.0136838
-0.0138553
-0.0138655
-0.0138156
-0.0138423
-0.0139667
-0.0141415
-0.0142778
-0.0143429
-0.01441
-0.0145518
-0.0147728
-0.015064
-0.015394
-0.0156949
-0.0159272
-0.0160989
-0.0161896
-0.016231
-0.0163125
-0.0164553
-0.016588
-0.0167179
-0.0168966
-0.0170898
-0.0172428
-0.0173814
-0.0175253
-0.0176782
-0.0178425
-0.0180113
-0.0181972
-0.0183939
-0.0186049
-0.0188071
-0.0189851
-0.019154
-0.0193311
-0.0194845
-0.0196499
-0.0198573
-0.020079
-0.0202528
-0.020433
-0.0206296
-0.0208026
-0.020979
-0.0211759
-0.0213895
-0.0215922
-0.0218057
-0.0220582
-0.0223179
-0.0225714
-0.0227905
-0.0230043
-0.0232065
-0.0234496
-0.0237256
-0.0240131
-0.0242811
-0.0245384
-0.0248126
-0.0250752
-0.0253656
-0.0256471
-0.0259541
-0.0262439
-0.0265772
-0.0268792
-0.0272154
-0.0274943
-0.0277734
-0.0281045
-0.0283266
-0.0285873
-0.0287916
-0.028691
-0.0285997
-0.00118729
-0.00340446
-0.0104501
-0.0158386
-0.0170776
-0.0159976
-0.0144569
-0.0132697
-0.0126735
-0.0125645
-0.0127628
-0.0130439
-0.0131299
-0.0129712
-0.0128293
-0.0128894
-0.0130891
-0.0133075
-0.0134294
-0.0134282
-0.0134814
-0.0136809
-0.0138529
-0.0138632
-0.0138133
-0.0138401
-0.0139646
-0.0141396
-0.0142761
-0.0143413
-0.0144085
-0.0145503
-0.0147713
-0.0150627
-0.0153928
-0.0156939
-0.0159263
-0.0160981
-0.0161889
-0.0162303
-0.0163118
-0.0164547
-0.0165874
-0.0167174
-0.016896
-0.0170894
-0.0172423
-0.0173809
-0.0175249
-0.0176778
-0.0178421
-0.0180109
-0.0181968
-0.0183935
-0.0186046
-0.0188068
-0.0189848
-0.0191536
-0.0193308
-0.0194842
-0.0196497
-0.019857
-0.0200787
-0.0202525
-0.0204327
-0.0206294
-0.0208024
-0.0209787
-0.0211756
-0.0213893
-0.021592
-0.0218055
-0.022058
-0.0223177
-0.0225712
-0.0227903
-0.0230042
-0.0232063
-0.0234494
-0.0237255
-0.024013
-0.024281
-0.0245383
-0.0248125
-0.0250751
-0.0253655
-0.025647
-0.0259539
-0.0262438
-0.0265771
-0.0268791
-0.0272153
-0.0274942
-0.0277733
-0.0281044
-0.0283266
-0.0285872
-0.0287915
-0.0286909
-0.0285994
-0.00170979
-0.0034072
-0.0101774
-0.0156011
-0.0169617
-0.0159482
-0.014432
-0.0132542
-0.0126624
-0.0125547
-0.0127523
-0.0130331
-0.0131208
-0.0129648
-0.0128249
-0.0128858
-0.0130854
-0.013304
-0.0134263
-0.0134255
-0.0134788
-0.0136787
-0.0138509
-0.0138612
-0.0138112
-0.0138381
-0.0139627
-0.0141379
-0.0142746
-0.0143398
-0.014407
-0.0145488
-0.0147699
-0.0150614
-0.0153918
-0.0156931
-0.0159255
-0.0160974
-0.0161882
-0.0162296
-0.0163111
-0.0164541
-0.0165869
-0.0167168
-0.0168955
-0.017089
-0.017242
-0.0173806
-0.0175245
-0.0176775
-0.0178417
-0.0180106
-0.0181965
-0.0183932
-0.0186043
-0.0188065
-0.0189846
-0.0191534
-0.0193305
-0.0194839
-0.0196494
-0.0198567
-0.0200785
-0.0202523
-0.0204325
-0.0206292
-0.0208022
-0.0209785
-0.0211754
-0.0213891
-0.0215918
-0.0218053
-0.0220579
-0.0223176
-0.022571
-0.0227902
-0.023004
-0.0232062
-0.0234493
-0.0237254
-0.0240129
-0.0242809
-0.0245382
-0.0248124
-0.025075
-0.0253654
-0.0256469
-0.0259539
-0.0262437
-0.0265771
-0.026879
-0.0272152
-0.0274942
-0.0277732
-0.0281044
-0.0283265
-0.0285871
-0.0287914
-0.0286908
-0.028599
-0.00218356
-0.00340396
-0.00984344
-0.0152974
-0.0168057
-0.0158805
-0.0143983
-0.0132341
-0.0126496
-0.0125453
-0.0127409
-0.0130177
-0.0131048
-0.0129533
-0.012819
-0.0128825
-0.0130817
-0.0132994
-0.0134222
-0.0134226
-0.0134767
-0.0136765
-0.0138484
-0.0138587
-0.0138091
-0.0138363
-0.013961
-0.0141361
-0.0142728
-0.0143382
-0.0144054
-0.0145472
-0.0147683
-0.0150599
-0.0153906
-0.0156923
-0.0159248
-0.0160967
-0.0161875
-0.0162288
-0.0163103
-0.0164534
-0.0165863
-0.0167162
-0.016895
-0.0170885
-0.0172416
-0.0173801
-0.0175241
-0.0176771
-0.0178414
-0.0180102
-0.0181961
-0.0183929
-0.018604
-0.0188062
-0.0189843
-0.0191531
-0.0193303
-0.0194837
-0.0196491
-0.0198565
-0.0200783
-0.0202521
-0.0204323
-0.020629
-0.020802
-0.0209783
-0.0211752
-0.021389
-0.0215916
-0.0218051
-0.0220577
-0.0223174
-0.0225709
-0.0227901
-0.0230039
-0.023206
-0.0234491
-0.0237252
-0.0240127
-0.0242808
-0.024538
-0.0248123
-0.0250749
-0.0253653
-0.0256468
-0.0259538
-0.0262436
-0.026577
-0.0268789
-0.0272151
-0.0274941
-0.0277732
-0.0281043
-0.0283264
-0.0285871
-0.0287914
-0.0286909
-0.0285985
-0.00266435
-0.00345693
-0.00950233
-0.0149653
-0.0166314
-0.0158039
-0.014359
-0.0132094
-0.0126341
-0.0125353
-0.0127286
-0.0129975
-0.0130813
-0.0129356
-0.0128104
-0.0128788
-0.0130774
-0.013293
-0.0134165
-0.0134196
-0.0134751
-0.0136741
-0.0138447
-0.0138551
-0.0138066
-0.0138347
-0.0139594
-0.014134
-0.0142706
-0.0143363
-0.0144038
-0.0145454
-0.0147661
-0.0150578
-0.0153891
-0.0156911
-0.0159237
-0.0160956
-0.0161864
-0.0162277
-0.0163093
-0.0164526
-0.0165855
-0.0167155
-0.0168943
-0.017088
-0.0172411
-0.0173797
-0.0175237
-0.0176766
-0.0178409
-0.0180098
-0.0181958
-0.0183925
-0.0186036
-0.0188059
-0.018984
-0.0191529
-0.01933
-0.0194834
-0.0196488
-0.0198562
-0.0200781
-0.0202519
-0.0204321
-0.0206288
-0.0208018
-0.0209781
-0.021175
-0.0213888
-0.0215914
-0.0218049
-0.0220575
-0.0223172
-0.0225707
-0.0227899
-0.0230037
-0.0232059
-0.0234489
-0.0237251
-0.0240126
-0.0242806
-0.0245379
-0.0248122
-0.0250748
-0.0253651
-0.0256467
-0.0259537
-0.0262435
-0.0265769
-0.0268788
-0.0272151
-0.027494
-0.0277731
-0.0281043
-0.0283264
-0.028587
-0.0287915
-0.028691
-0.0285978
-0.00316093
-0.00357251
-0.00915859
-0.0146067
-0.016441
-0.0157215
-0.0143172
-0.0131822
-0.0126161
-0.0125242
-0.0127153
-0.0129743
-0.013053
-0.0129137
-0.0127997
-0.0128743
-0.0130718
-0.0132845
-0.0134091
-0.0134168
-0.013475
-0.013672
-0.0138395
-0.0138495
-0.0138031
-0.0138331
-0.0139581
-0.0141318
-0.0142679
-0.0143343
-0.0144023
-0.0145436
-0.0147635
-0.015055
-0.0153869
-0.0156896
-0.0159222
-0.016094
-0.0161848
-0.0162262
-0.016308
-0.0164514
-0.0165844
-0.0167145
-0.0168935
-0.0170873
-0.0172404
-0.0173791
-0.0175231
-0.0176761
-0.0178404
-0.0180093
-0.0181953
-0.0183921
-0.0186032
-0.0188056
-0.0189837
-0.0191525
-0.0193297
-0.0194831
-0.0196485
-0.019856
-0.0200778
-0.0202516
-0.0204318
-0.0206286
-0.0208015
-0.0209779
-0.0211748
-0.0213886
-0.0215912
-0.0218047
-0.0220573
-0.0223171
-0.0225706
-0.0227898
-0.0230036
-0.0232057
-0.0234487
-0.0237249
-0.0240125
-0.0242805
-0.0245378
-0.0248121
-0.0250746
-0.025365
-0.0256466
-0.0259536
-0.0262434
-0.0265768
-0.0268787
-0.027215
-0.0274939
-0.027773
-0.0281042
-0.0283263
-0.028587
-0.0287916
-0.0286913
-0.028597
-0.00365488
-0.00373626
-0.0088083
-0.0142195
-0.0162344
-0.0156352
-0.014275
-0.013154
-0.0125962
-0.0125112
-0.0127007
-0.0129497
-0.0130229
-0.0128903
-0.0127882
-0.012869
-0.0130649
-0.0132738
-0.0134003
-0.0134147
-0.0134766
-0.0136705
-0.0138332
-0.0138419
-0.013798
-0.0138309
-0.0139564
-0.014129
-0.0142647
-0.0143322
-0.0144013
-0.0145421
-0.0147605
-0.0150515
-0.0153842
-0.0156877
-0.0159202
-0.0160915
-0.0161824
-0.0162243
-0.0163063
-0.0164498
-0.016583
-0.0167133
-0.0168924
-0.0170863
-0.0172396
-0.0173783
-0.0175224
-0.0176753
-0.0178398
-0.0180087
-0.0181948
-0.0183916
-0.0186027
-0.0188052
-0.0189834
-0.0191522
-0.0193293
-0.0194827
-0.0196482
-0.0198557
-0.0200776
-0.0202514
-0.0204315
-0.0206284
-0.0208013
-0.0209776
-0.0211745
-0.0213883
-0.021591
-0.0218044
-0.022057
-0.0223169
-0.0225704
-0.0227896
-0.0230034
-0.0232055
-0.0234485
-0.0237247
-0.0240123
-0.0242804
-0.0245376
-0.0248119
-0.0250745
-0.0253649
-0.0256464
-0.0259535
-0.0262433
-0.0265767
-0.0268787
-0.0272149
-0.0274939
-0.0277729
-0.0281042
-0.0283263
-0.028587
-0.0287919
-0.0286918
-0.028596
-0.00412661
-0.00394211
-0.00846002
-0.0138085
-0.0160125
-0.0155458
-0.0142332
-0.0131256
-0.0125745
-0.0124963
-0.0126849
-0.0129245
-0.0129921
-0.0128664
-0.0127763
-0.0128632
-0.0130568
-0.0132616
-0.0133904
-0.0134132
-0.0134801
-0.0136704
-0.0138266
-0.013833
-0.0137913
-0.0138274
-0.0139538
-0.0141253
-0.0142607
-0.01433
-0.0144009
-0.0145411
-0.0147576
-0.0150477
-0.0153811
-0.0156854
-0.0159177
-0.0160882
-0.0161791
-0.0162216
-0.016304
-0.0164477
-0.0165811
-0.0167119
-0.0168911
-0.0170851
-0.0172385
-0.0173774
-0.0175215
-0.0176744
-0.0178389
-0.018008
-0.0181941
-0.0183909
-0.0186021
-0.0188047
-0.018983
-0.0191517
-0.0193287
-0.0194822
-0.0196478
-0.0198553
-0.0200773
-0.0202511
-0.0204313
-0.0206281
-0.020801
-0.0209773
-0.0211743
-0.0213881
-0.0215907
-0.0218041
-0.0220568
-0.0223167
-0.0225702
-0.0227894
-0.0230032
-0.0232052
-0.0234482
-0.0237245
-0.0240122
-0.0242802
-0.0245374
-0.0248118
-0.0250743
-0.0253647
-0.0256463
-0.0259533
-0.0262431
-0.0265765
-0.0268785
-0.0272148
-0.0274938
-0.0277728
-0.0281042
-0.0283262
-0.0285871
-0.0287923
-0.0286925
-0.028595
-0.00456293
-0.00418993
-0.00812834
-0.0133791
-0.0157737
-0.0154516
-0.0141913
-0.0130968
-0.0125509
-0.0124793
-0.012668
-0.0128988
-0.0129609
-0.012842
-0.012764
-0.0128569
-0.0130478
-0.0132483
-0.01338
-0.0134122
-0.0134851
-0.0136717
-0.0138206
-0.0138238
-0.0137838
-0.0138228
-0.0139501
-0.0141205
-0.0142559
-0.0143277
-0.0144008
-0.0145407
-0.0147551
-0.015044
-0.015378
-0.0156833
-0.0159149
-0.0160842
-0.0161749
-0.0162183
-0.0163011
-0.0164448
-0.0165788
-0.0167101
-0.0168895
-0.0170835
-0.0172372
-0.0173763
-0.0175204
-0.0176733
-0.0178378
-0.018007
-0.0181933
-0.0183899
-0.0186011
-0.018804
-0.0189825
-0.0191511
-0.0193281
-0.0194816
-0.0196474
-0.0198549
-0.0200769
-0.0202508
-0.020431
-0.0206279
-0.0208007
-0.020977
-0.021174
-0.0213878
-0.0215904
-0.0218038
-0.0220566
-0.0223165
-0.02257
-0.0227892
-0.023003
-0.023205
-0.0234479
-0.0237243
-0.0240119
-0.02428
-0.0245372
-0.0248116
-0.0250741
-0.0253645
-0.0256461
-0.0259532
-0.026243
-0.0265764
-0.0268784
-0.0272147
-0.0274937
-0.0277726
-0.0281041
-0.0283262
-0.0285872
-0.0287928
-0.0286935
-0.0285938
-0.00495431
-0.0044767
-0.00782562
-0.0129344
-0.0155139
-0.0153501
-0.0141484
-0.0130678
-0.0125258
-0.0124602
-0.0126498
-0.0128725
-0.0129293
-0.0128168
-0.012751
-0.0128501
-0.0130385
-0.0132344