/*--------------------------------*- C++ -*----------------------------------*\
| =========                 |                                                 |
| \\      /  F ield         | OpenFOAM: The Open Source CFD Toolbox           |
|  \\    /   O peration     | Version:  2506                                  |
|   \\  /    A nd           | Website:  www.openfoam.com                      |
|    \\/     M anipulation  |                                                 |
\*---------------------------------------------------------------------------*/
FoamFile
{
    version     2.0;
    format      ascii;
    arch        "LSB;label=32;scalar=64";
    class       surfaceScalarField;
    location    "9.95";
    object      phi;
}
// * * * * * * * * * * * * * * * * * * * * * * * * * * * * * * * * * * * * * //

dimensions      [0 3 -1 0 0 0 0];

oriented        oriented;

internalField   nonuniform List<scalar> 
19000
(
1.16645e-06
4.783e-07
1.15435e-06
-1.19023e-06
1.17157e-06
7.92344e-07
1.13506e-06
-1.13937e-06
1.18188e-06
2.18858e-06
1.0954e-06
-8.33449e-07
1.11826e-06
6.99514e-07
1.15578e-06
3.13349e-07
1.12657e-06
-1.11762e-06
1.16852e-06
-5.86955e-07
1.18335e-06
-1.50074e-07
1.16752e-06
-2.10782e-07
1.19858e-06
1.10956e-06
1.15472e-06
-3.06128e-08
1.1887e-06
1.12604e-06
1.13076e-06
2.05987e-07
1.14662e-06
7.76321e-07
1.09055e-06
1.83396e-07
1.10003e-06
4.77606e-07
1.89329e-07
1.04773e-06
1.22215e-06
4.80407e-07
1.21038e-06
-1.17845e-06
1.22545e-06
7.77269e-07
1.19234e-06
-1.10625e-06
1.23181e-06
2.1491e-06
1.15048e-06
-7.52112e-07
1.1618e-06
6.88186e-07
1.21068e-06
2.64467e-07
1.1852e-06
-1.09213e-06
1.22561e-06
-6.2737e-07
1.23862e-06
-1.63076e-07
1.22361e-06
-1.95771e-07
1.25016e-06
1.08301e-06
1.21626e-06
3.2813e-09
1.22948e-06
1.11282e-06
1.19748e-06
2.37992e-07
1.18122e-06
7.92579e-07
1.16134e-06
2.03282e-07
1.1331e-06
5.05842e-07
1.84119e-07
1.13831e-06
1.28117e-06
4.82022e-07
1.2686e-06
-1.16588e-06
1.28358e-06
7.62286e-07
1.25084e-06
-1.07351e-06
1.28539e-06
2.11455e-06
1.21364e-06
-6.80358e-07
1.21117e-06
6.90656e-07
1.26677e-06
2.08862e-07
1.24827e-06
-1.07363e-06
1.28026e-06
-6.59357e-07
1.29575e-06
-1.78567e-07
1.28511e-06
-1.85133e-07
1.30742e-06
1.0607e-06
1.28064e-06
3.00612e-08
1.28576e-06
1.10771e-06
1.26424e-06
2.59506e-07
1.24667e-06
8.10149e-07
1.23168e-06
2.18273e-07
1.21984e-06
5.17679e-07
1.92195e-07
1.21177e-06
1.34335e-06
4.82778e-07
1.33022e-06
-1.15275e-06
1.34489e-06
7.47615e-07
1.31376e-06
-1.04238e-06
1.34247e-06
2.08584e-06
1.28478e-06
-6.22674e-07
1.27031e-06
7.05125e-07
1.32567e-06
1.53503e-07
1.31307e-06
-1.06103e-06
1.33428e-06
-6.80562e-07
1.3528e-06
-1.97086e-07
1.3479e-06
-1.8024e-07
1.36763e-06
1.04097e-06
1.34641e-06
5.12849e-08
1.34939e-06
1.10472e-06
1.33025e-06
2.78646e-07
1.32071e-06
8.19693e-07
1.30248e-06
2.36501e-07
1.30497e-06
5.15194e-07
2.08282e-07
1.28888e-06
1.40861e-06
4.82518e-07
1.39533e-06
-1.13948e-06
1.40932e-06
7.33626e-07
1.38082e-06
-1.01388e-06
1.40427e-06
2.0624e-06
1.36113e-06
-5.79535e-07
1.34147e-06
7.24785e-07
1.38882e-06
1.06156e-07
1.37964e-06
-1.05185e-06
1.39094e-06
-6.91861e-07
1.41114e-06
-2.1729e-07
1.41063e-06
-1.79729e-07
1.42939e-06
1.02221e-06
1.41069e-06
6.99866e-08
1.4146e-06
1.10082e-06
1.395e-06
2.98241e-07
1.3939e-06
8.20794e-07
1.37396e-06
2.56438e-07
1.38374e-06
5.05418e-07
2.26395e-07
1.36562e-06
1.47684e-06
4.81355e-07
1.46378e-06
-1.12642e-06
1.47662e-06
7.20785e-07
1.45124e-06
-9.88494e-07
1.47113e-06
2.0425e-06
1.44008e-06
-5.48478e-07
1.42282e-06
7.42043e-07
1.45773e-06
7.12437e-08
1.4485e-06
-1.04262e-06
1.45287e-06
-6.96234e-07
1.47265e-06
-2.3707e-07
1.47403e-06
-1.8111e-07
1.49336e-06
1.00288e-06
1.47553e-06
8.78234e-08
1.48095e-06
1.0954e-06
1.46143e-06
3.17758e-07
1.46751e-06
8.14718e-07
1.44754e-06
2.76403e-07
1.46206e-06
4.90904e-07
2.45139e-07
1.44332e-06
1.54797e-06
4.79602e-07
1.53527e-06
-1.11372e-06
1.5466e-06
7.09455e-07
1.52433e-06
-9.66224e-07
1.54276e-06
2.02407e-06
1.52034e-06
-5.26057e-07
1.51058e-06
7.51801e-07
1.53281e-06
4.90149e-08
1.5202e-06
-1.03001e-06
1.5201e-06
-6.96135e-07
1.53804e-06
-2.55005e-07
1.53985e-06
-1.82927e-07
1.56084e-06
9.81893e-07
1.54389e-06
1.04773e-07
1.55168e-06
1.0876e-06
1.5328e-06
3.36637e-07
1.54498e-06
8.02546e-07
1.52497e-06
2.96407e-07
1.54298e-06
4.729e-07
2.6442e-07
1.52369e-06
1.62213e-06
4.77605e-07
1.6096e-06
-1.1012e-06
1.61935e-06
6.99708e-07
1.60002e-06
-9.46889e-07
1.61879e-06
2.00529e-06
1.60181e-06
-5.09072e-07
1.60152e-06
7.52084e-07
1.61334e-06
3.71946e-08
1.59528e-06
-1.01194e-06
1.59146e-06
-6.92322e-07
1.60687e-06
-2.70406e-07
1.60927e-06
-1.85334e-07
1.63241e-06
9.58757e-07
1.61689e-06
1.20286e-07
1.62835e-06
1.07614e-06
1.6098e-06
3.55192e-07
1.62701e-06
7.85335e-07
1.6062e-06
3.17222e-07
1.62652e-06
4.52576e-07
2.83931e-07
1.60701e-06
1.69958e-06
4.75603e-07
1.68682e-06
-1.08844e-06
1.69522e-06
6.91312e-07
1.67864e-06
-9.30316e-07
1.69913e-06
1.98481e-06
1.68495e-06
-4.94897e-07
1.69378e-06
7.43257e-07
1.69816e-06
3.28082e-08
1.67423e-06
-9.88003e-07
1.66632e-06
-6.84418e-07
1.67863e-06
-2.82708e-07
1.68222e-06
-1.88924e-07
1.70757e-06
9.334e-07
1.69364e-06
1.34221e-07
1.70975e-06
1.06003e-06
1.69083e-06
3.74114e-07
1.71228e-06
7.63883e-07
1.6903e-06
3.39207e-07
1.71197e-06
4.30907e-07
3.02792e-07
1.69311e-06
1.78064e-06
4.73682e-07
1.76724e-06
-1.07504e-06
1.77468e-06
6.83867e-07
1.76064e-06
-9.16272e-07
1.78381e-06
1.96164e-06
1.77034e-06
-4.8143e-07
1.78658e-06
7.27021e-07
1.78616e-06
3.32245e-08
1.75734e-06
-9.59177e-07
1.74492e-06
-6.72004e-07
1.75346e-06
-2.91251e-07
1.75792e-06
-1.93375e-07
1.78515e-06
9.06166e-07
1.7724e-06
1.46967e-07
1.79361e-06
1.03882e-06
1.77402e-06
3.93704e-07
1.79939e-06
7.38511e-07
1.77678e-06
3.61818e-07
1.79898e-06
4.08705e-07
3.19777e-07
1.782e-06
1.86563e-06
4.71805e-07
1.85135e-06
-1.06077e-06
1.8582e-06
6.77018e-07
1.84626e-06
-9.04333e-07
1.87282e-06
1.93508e-06
1.85846e-06
-4.67071e-07
1.87995e-06
7.05532e-07
1.87662e-06
3.65544e-08
1.84461e-06
-9.27166e-07
1.8279e-06
-6.55297e-07
1.83227e-06
-2.95613e-07
1.83596e-06
-1.97064e-07
1.86433e-06
8.77787e-07
1.85223e-06
1.59068e-07
1.87861e-06
1.01244e-06
1.85881e-06
4.1351e-07
1.88808e-06
7.09239e-07
1.86606e-06
3.8384e-07
1.88794e-06
3.86823e-07
3.33799e-07
1.87392e-06
1.95479e-06
4.69856e-07
1.93972e-06
-1.0457e-06
1.94614e-06
6.70598e-07
1.93567e-06
-8.93866e-07
1.96606e-06
1.90469e-06
1.94977e-06
-4.50778e-07
1.97462e-06
6.80678e-07
1.96943e-06
4.17475e-08
1.93596e-06
-8.93695e-07
1.9159e-06
-6.35244e-07
1.91636e-06
-2.96067e-07
1.91716e-06
-1.97863e-07
1.94586e-06
8.49089e-07
1.93408e-06
1.70846e-07
1.96555e-06
9.80971e-07
1.94644e-06
4.32622e-07
1.97936e-06
6.76311e-07
1.95916e-06
4.04046e-07
1.97957e-06
3.6641e-07
3.44194e-07
1.96918e-06
2.04838e-06
4.67669e-07
2.03278e-06
-1.03011e-06
2.03879e-06
6.64594e-07
2.02905e-06
-8.84123e-07
2.06335e-06
1.87039e-06
2.04469e-06
-4.32125e-07
2.07165e-06
6.5372e-07
2.06496e-06
4.84398e-08
2.03138e-06
-8.6012e-07
2.00929e-06
-6.13148e-07
2.00692e-06
-2.93699e-07
2.00358e-06
-1.94526e-07
2.03213e-06
8.20541e-07
2.02065e-06
1.82322e-07
2.05689e-06
9.44737e-07
2.03914e-06
4.50366e-07
2.07471e-06
6.40744e-07
2.05695e-06
4.21804e-07
2.07443e-06
3.48932e-07
3.50752e-07
2.06787e-06
2.14662e-06
4.6505e-07
2.13076e-06
-1.01425e-06
2.13638e-06
6.58976e-07
2.12655e-06
-8.74289e-07
2.16449e-06
1.83245e-06
2.14361e-06
-4.11247e-07
2.17196e-06
6.25367e-07
2.16383e-06
5.65735e-08
2.13114e-06
-8.2743e-07
2.10806e-06
-5.90067e-07
2.10428e-06
-2.89921e-07
2.09732e-06
-1.87566e-07
2.12585e-06
7.92016e-07
2.1147e-06
1.93469e-07
2.15499e-06
9.04446e-07
2.13855e-06
4.66804e-07
2.1749e-06
6.04397e-07
2.15954e-06
4.37158e-07
2.17255e-06
3.35928e-07
3.53478e-07
2.16982e-06
2.24971e-06
4.61826e-07
2.23367e-06
-9.98209e-07
2.23911e-06
6.53538e-07
2.22828e-06
-8.63459e-07
2.26935e-06
1.79138e-06
2.24674e-06
-3.88638e-07
2.27601e-06
5.96095e-07
2.26659e-06
6.59915e-08
2.23561e-06
-7.96448e-07
2.21194e-06
-5.66399e-07
2.20772e-06
-2.85703e-07
2.19897e-06
-1.78811e-07
2.22799e-06
7.62995e-07
2.21697e-06
2.04492e-07
2.26019e-06
8.61223e-07
2.24447e-06
4.82526e-07
2.2794e-06
5.69462e-07
2.26623e-06
4.50332e-07
2.27383e-06
3.28328e-07
3.52562e-07
2.27475e-06
2.35781e-06
4.57895e-07
2.34145e-06
-9.81855e-07
2.34709e-06
6.47895e-07
2.33434e-06
-8.50708e-07
2.378e-06
1.74773e-06
2.35422e-06
-3.64867e-07
2.38398e-06
5.66339e-07
2.37366e-06
7.63085e-08
2.34513e-06
-7.67915e-07
2.32066e-06
-5.41928e-07
2.31609e-06
-2.81136e-07
2.30731e-06
-1.70029e-07
2.33721e-06
7.331e-07
2.32584e-06
2.15857e-07
2.37064e-06
8.16428e-07
2.3552e-06
4.97965e-07
2.38699e-06
5.37665e-07
2.37617e-06
4.61158e-07
2.37853e-06
3.25961e-07
3.48446e-07
2.38265e-06
2.47103e-06
4.53257e-07
2.45414e-06
-9.64962e-07
2.46041e-06
6.41628e-07
2.44498e-06
-8.35283e-07
2.49083e-06
1.70188e-06
2.46628e-06
-3.40321e-07
2.49619e-06
5.36436e-07
2.48541e-06
8.70806e-08
2.45984e-06
-7.42337e-07
2.43417e-06
-5.16265e-07
2.42869e-06
-2.75649e-07
2.42053e-06
-1.61874e-07
2.45114e-06
7.02489e-07
2.43901e-06
2.27993e-07
2.48402e-06
7.71412e-07
2.46912e-06
5.12869e-07
2.49697e-06
5.09819e-07
2.48914e-06
4.68979e-07
2.48726e-06
3.27846e-07
3.41675e-07
2.49403e-06
2.58956e-06
4.47996e-07
2.57194e-06
-9.4735e-07
2.57914e-06
6.34428e-07
2.56066e-06
-8.16803e-07
2.60851e-06
1.65403e-06
2.5833e-06
-3.15104e-07
2.61325e-06
5.06482e-07
2.60228e-06
9.80499e-08
2.57974e-06
-7.19798e-07
2.55272e-06
-4.89247e-07
2.54565e-06
-2.68574e-07
2.53773e-06
-1.53955e-07
2.5684e-06
6.71818e-07
2.55539e-06
2.41006e-07
2.59952e-06
7.27277e-07
2.58599e-06
5.26402e-07
2.60988e-06
4.85929e-07
2.60581e-06
4.73051e-07
2.60102e-06
3.32631e-07
3.32966e-07
2.60973e-06
2.71359e-06
4.42238e-07
2.69518e-06
-9.28945e-07
2.70346e-06
6.26146e-07
2.68194e-06
-7.9528e-07
2.73176e-06
1.60421e-06
2.70574e-06
-2.89083e-07
2.7359e-06
4.76325e-07
2.72472e-06
1.09225e-07
2.70486e-06
-6.99938e-07
2.67668e-06
-4.61065e-07
2.66764e-06
-2.59535e-07
2.65931e-06
-1.45624e-07
2.68925e-06
6.41874e-07
2.67563e-06
2.54632e-07
2.71817e-06
6.84732e-07
2.70691e-06
5.37661e-07
2.72723e-06
4.65617e-07
2.72728e-06
4.72999e-07
2.72087e-06
3.39041e-07
3.23159e-07
2.73068e-06
2.8434e-06
4.3611e-07
2.82421e-06
-9.09758e-07
2.83361e-06
6.16747e-07
2.80931e-06
-7.70986e-07
2.86114e-06
1.55238e-06
2.83408e-06
-2.62023e-07
2.86472e-06
4.4569e-07
2.85316e-06
1.20782e-07
2.83535e-06
-6.82126e-07
2.80643e-06
-4.3215e-07
2.79536e-06
-2.48465e-07
2.78638e-06
-1.36643e-07
2.81501e-06
6.13249e-07
2.80124e-06
2.68394e-07
2.84183e-06
6.44146e-07
2.83343e-06
5.46067e-07
2.85055e-06
4.48493e-07
2.85462e-06
4.68933e-07
2.84757e-06
3.46087e-07
3.13164e-07
2.85757e-06
2.97929e-06
4.29711e-07
2.95936e-06
-8.89827e-07
2.96987e-06
6.06237e-07
2.94315e-06
-7.44259e-07
2.99704e-06
1.4985e-06
2.96872e-06
-2.33703e-07
3.00007e-06
4.14331e-07
2.98794e-06
1.32914e-07
2.97147e-06
-6.65656e-07
2.94234e-06
-4.0302e-07
2.9293e-06
-2.35426e-07
2.91995e-06
-1.27289e-07
2.94698e-06
5.86217e-07
2.93355e-06
2.81823e-07
2.97209e-06
6.05613e-07
2.96669e-06
5.51466e-07
2.98088e-06
4.34301e-07
2.98853e-06
4.61276e-07
2.98153e-06
3.5309e-07
3.03813e-07
2.99088e-06
3.12161e-06
4.23111e-07
3.10096e-06
-8.69184e-07
3.11258e-06
5.94618e-07
3.08371e-06
-7.15385e-07
3.13969e-06
1.44251e-06
3.10996e-06
-2.03975e-07
3.14219e-06
3.82106e-07
3.12938e-06
1.45719e-07
3.11359e-06
-6.49864e-07
3.08476e-06
-3.74191e-07
3.06979e-06
-2.20452e-07
3.0606e-06
-1.18104e-07
3.08606e-06
5.60764e-07
3.07326e-06
2.9462e-07
3.10979e-06
5.69077e-07
3.1073e-06
5.53964e-07
3.11873e-06
4.22866e-07
3.12939e-06
4.50623e-07
3.12298e-06
3.59496e-07
2.95873e-07
3.13092e-06
3.27068e-06
4.16345e-07
3.24933e-06
-8.47839e-07
3.26207e-06
5.81882e-07
3.23124e-06
-6.84555e-07
3.28931e-06
1.38444e-06
3.25812e-06
-1.72786e-07
3.29125e-06
3.48985e-07
3.2778e-06
1.59166e-07
3.26208e-06
-6.34151e-07
3.23406e-06
-3.46168e-07
3.2171e-06
-2.03488e-07
3.20861e-06
-1.09618e-07
3.23268e-06
5.36698e-07
3.22062e-06
3.06676e-07
3.25528e-06
5.34419e-07
3.25554e-06
5.53704e-07
3.2643e-06
4.1411e-07
3.27742e-06
4.37495e-07
3.27206e-06
3.64863e-07
2.89977e-07
3.27795e-06
3.42686e-06
4.09416e-07
3.40481e-06
-8.25784e-07
3.41868e-06
5.68011e-07
3.386e-06
-6.51875e-07
3.44612e-06
1.32432e-06
3.4135e-06
-1.40171e-07
3.44746e-06
3.1503e-07
3.43353e-06
1.73095e-07
3.41734e-06
-6.17963e-07
3.39063e-06
-3.19457e-07
3.37157e-06
-1.84426e-07
3.36411e-06
-1.02164e-07
3.38712e-06
5.13694e-07
3.37572e-06
3.18074e-07
3.40865e-06
5.01492e-07
3.41156e-06
5.50786e-07
3.4177e-06
4.07978e-07
3.43275e-06
4.22436e-07
3.42891e-06
3.68706e-07
2.86511e-07
3.43238e-06
3.59052e-06
4.02306e-07
3.56774e-06
-8.03004e-07
3.58276e-06
5.52993e-07
3.54827e-06
-6.17388e-07
3.61035e-06
1.26224e-06
3.57642e-06
-1.06243e-07
3.61107e-06
2.80385e-07
3.59693e-06
1.87233e-07
3.57974e-06
-6.00771e-07
3.55483e-06
-2.94549e-07
3.53359e-06
-1.63182e-07
3.52724e-06
-9.58186e-08
3.54958e-06
4.91355e-07
3.53866e-06
3.28997e-07
3.5699e-06
4.70247e-07
3.57555e-06
5.45135e-07
3.5791e-06
4.0443e-07
3.59544e-06
4.06099e-07
3.59378e-06
3.7037e-07
2.85681e-07
3.59461e-06
3.76204e-06
3.94973e-07
3.73852e-06
-7.79481e-07
3.75468e-06
5.3683e-07
3.7184e-06
-5.81105e-07
3.78229e-06
1.19834e-06
3.74724e-06
-7.11886e-08
3.78235e-06
2.4527e-07
3.76837e-06
2.01212e-07
3.74966e-06
-5.8206e-07
3.72704e-06
-2.71927e-07
3.7036e-06
-1.3974e-07
3.69818e-06
-9.04002e-08
3.72031e-06
4.69221e-07
3.70963e-06
3.39681e-07
3.73913e-06
4.40745e-07
3.7477e-06
5.36567e-07
3.74884e-06
4.03293e-07
3.76561e-06
3.89328e-07
3.76681e-06
3.69167e-07
2.87272e-07
3.76522e-06
3.94179e-06
3.87367e-07
3.91751e-06
-7.55197e-07
3.93481e-06
5.19533e-07
3.89673e-06
-5.43031e-07
3.96226e-06
1.13281e-06
3.92633e-06
-3.52602e-08
3.96161e-06
2.09998e-07
3.94824e-06
2.14582e-07
3.92747e-06
-5.61298e-07
3.90759e-06
-2.52046e-07
3.88208e-06
-1.14223e-07
3.87715e-06
-8.54704e-08
3.89957e-06
4.46794e-07
3.88896e-06
3.50294e-07
3.91646e-06
4.13249e-07
3.92821e-06
5.24809e-07
3.92733e-06
4.04181e-07
3.94348e-06
3.73171e-07
3.94813e-06
3.64521e-07
2.90601e-07
3.9448e-06
4.13018e-06
3.79434e-07
4.10512e-06
-7.30132e-07
4.12353e-06
5.01116e-07
4.08369e-06
-5.03182e-07
4.15062e-06
1.06587e-06
4.11414e-06
1.22344e-09
4.14915e-06
1.74991e-07
4.13692e-06
2.2681e-07
4.11356e-06
-5.37937e-07
4.09681e-06
-2.35293e-07
4.06952e-06
-8.69392e-08
4.06442e-06
-8.03743e-08
4.08761e-06
4.23613e-07
4.0771e-06
3.608e-07
4.1021e-06
3.88252e-07
4.11725e-06
5.09661e-07
4.11507e-06
4.06357e-07
4.12947e-06
3.58774e-07
4.13774e-06
3.56243e-07
2.94463e-07
4.13388e-06
4.32761e-06
3.71129e-07
4.30174e-06
-7.04261e-07
4.32127e-06
4.81585e-07
4.27969e-06
-4.61608e-07
4.34777e-06
9.97797e-07
4.31112e-06
3.7871e-08
4.34533e-06
1.40785e-07
4.33482e-06
2.37314e-07
4.30838e-06
-5.11488e-07
4.29495e-06
-2.21866e-07
4.26643e-06
-5.84251e-08
4.2604e-06
-7.43374e-08
4.28469e-06
3.99325e-07
4.27453e-06
3.70951e-07
4.29636e-06
3.66424e-07
4.31497e-06
4.91056e-07
4.31246e-06
4.08862e-07
4.32414e-06
3.47094e-07
4.33576e-06
3.44625e-07
2.97539e-07
4.33268e-06
4.53449e-06
3.62415e-07
4.50777e-06
-6.77545e-07
4.52843e-06
4.60923e-07
4.48523e-06
-4.18403e-07
4.55413e-06
9.28901e-07
4.51778e-06
7.42157e-08
4.55052e-06
1.08044e-07
4.54238e-06
2.45456e-07
4.51243e-06
-4.81537e-07
4.50231e-06
-2.11747e-07
4.47332e-06
-2.94327e-08
4.46554e-06
-6.65604e-08
4.49108e-06
3.7378e-07
4.48177e-06
3.80262e-07
4.49975e-06
3.48445e-07
4.52154e-06
4.69263e-07
4.51982e-06
4.1059e-07
4.52834e-06
3.38571e-07
4.54216e-06
3.30801e-07
2.98295e-07
4.54141e-06
4.75126e-06
3.5327e-07
4.72365e-06
-6.49933e-07
4.74548e-06
4.39092e-07
4.7008e-06
-3.73721e-07
4.77012e-06
8.59577e-07
4.73463e-06
1.09706e-07
4.76515e-06
7.7521e-08
4.76e-06
2.50612e-07
4.72629e-06
-4.4783e-07
4.71919e-06
-2.04643e-07
4.69067e-06
-9.17003e-10
4.68038e-06
-5.62739e-08
4.70711e-06
3.47054e-07
4.6993e-06
3.88075e-07
4.71295e-06
3.34793e-07
4.73719e-06
4.45025e-07
4.73741e-06
4.10372e-07
4.74282e-06
3.33152e-07
4.7574e-06
3.16229e-07
2.95715e-07
4.75998e-06
4.97839e-06
3.43681e-07
4.94981e-06
-6.21357e-07
4.97286e-06
4.16045e-07
4.92692e-06
-3.27787e-07
4.9962e-06
7.90301e-07
4.96219e-06
1.43714e-07
4.98969e-06
5.00232e-08
4.98809e-06
2.52208e-07
4.95062e-06
-4.10358e-07
4.94593e-06
-1.9995e-07
4.91893e-06
2.60833e-08
4.90561e-06
-4.29505e-08
4.93309e-06
3.19567e-07
4.92758e-06
3.93587e-07
4.93669e-06
3.25686e-07
4.96238e-06
4.19336e-07
4.96546e-06
4.07284e-07
4.96832e-06
3.30302e-07
4.98212e-06
3.02424e-07
2.89521e-07
4.98831e-06
5.21636e-06
3.3364e-07
5.18675e-06
-5.91745e-07
5.21104e-06
3.91747e-07
5.16417e-06
-2.8091e-07
5.23283e-06
7.21639e-07
5.20099e-06
1.75549e-07
5.22464e-06
2.63752e-08
5.22705e-06
2.49796e-07
5.18613e-06
-3.69433e-07
5.18295e-06
-1.96771e-07
5.15851e-06
5.05219e-08
5.14194e-06
-2.63826e-08
5.16947e-06
2.92037e-07
5.167e-06
3.96058e-07
5.17186e-06
3.20822e-07
5.19763e-06
3.93568e-07
5.20417e-06
4.00748e-07
5.20548e-06
3.2899e-07
5.21721e-06
2.90699e-07
2.80236e-07
5.22649e-06
5.46569e-06
3.2314e-07
5.43497e-06
-5.6103e-07
5.46051e-06
3.66213e-07
5.41309e-06
-2.33489e-07
5.48048e-06
6.54244e-07
5.45157e-06
2.04462e-07
5.47058e-06
7.35835e-09
5.47722e-06
2.43164e-07
5.43353e-06
-3.25747e-07
5.43077e-06
-1.94013e-07
5.40983e-06
7.14641e-08
5.39015e-06
-6.70253e-09
5.41681e-06
2.65381e-07
5.41794e-06
3.94929e-07
5.41926e-06
3.19498e-07
5.44369e-06
3.69137e-07
5.45383e-06
3.90607e-07
5.45466e-06
3.2816e-07
5.4637e-06
2.81656e-07
2.69142e-07
5.4748e-06
5.72692e-06
3.12175e-07
5.69506e-06
-5.29168e-07
5.72174e-06
3.39532e-07
5.67428e-06
-1.86025e-07
5.73967e-06
5.88854e-07
5.71443e-06
2.29696e-07
5.72815e-06
-6.35774e-09
5.73893e-06
2.32384e-07
5.69355e-06
-2.80371e-07
5.69001e-06
-1.90469e-07
5.67323e-06
8.82448e-08
5.651e-06
1.55272e-08
5.67571e-06
2.40669e-07
5.6808e-06
3.89838e-07
5.67953e-06
3.20774e-07
5.70145e-06
3.47216e-07
5.71482e-06
3.77237e-07
5.71615e-06
3.26828e-07
5.72267e-06
2.75138e-07
2.57792e-07
5.73402e-06
6.00063e-06
3.00736e-07
5.96762e-06
-4.96159e-07
5.99526e-06
3.11895e-07
5.94836e-06
-1.3912e-07
6.01093e-06
5.26275e-07
5.99011e-06
2.50522e-07
5.99806e-06
-1.43095e-08
6.01256e-06
2.17886e-07
5.96684e-06
-2.34651e-07
5.96133e-06
-1.84961e-07
5.94908e-06
1.00495e-07
5.92514e-06
3.94668e-08
5.94694e-06
2.18871e-07
5.95595e-06
3.80822e-07
5.95322e-06
3.23506e-07
5.97181e-06
3.28627e-07
5.98764e-06
3.6141e-07
5.99026e-06
3.24207e-07
5.99491e-06
2.70485e-07
2.47581e-07
6.00512e-06
6.28741e-06
2.88812e-07
6.25331e-06
-4.62054e-07
6.28163e-06
2.83574e-07
6.23595e-06
-9.34395e-08
6.29489e-06
4.67328e-07
6.27908e-06
2.66335e-07
6.28109e-06
-1.63171e-08
6.29857e-06
2.0041e-07
6.2539e-06
-1.89988e-07
6.24553e-06
-1.76585e-07
6.23773e-06
1.08293e-07
6.21317e-06
6.40275e-08
6.23128e-06
2.00756e-07
6.24382e-06
3.68288e-07
6.24076e-06
3.2656e-07
6.25568e-06
3.13711e-07
6.27301e-06
3.44075e-07
6.2774e-06
3.19825e-07
6.28094e-06
2.66937e-07
2.39144e-07
6.28938e-06
6.58788e-06
2.76397e-07
6.55278e-06
-4.26953e-07
6.58148e-06
2.54878e-07
6.53768e-06
-4.9643e-08
6.5922e-06
4.12808e-07
6.58188e-06
2.76662e-07
6.5781e-06
-1.25411e-08
6.59751e-06
1.81e-07
6.5552e-06
-1.47678e-07
6.54345e-06
-1.64836e-07
6.53962e-06
1.12124e-07
6.5156e-06
8.80446e-08
6.52952e-06
1.8684e-07
6.54487e-06
3.52938e-07
6.54259e-06
3.28835e-07
6.55386e-06
3.0244e-07
6.57176e-06
3.26177e-07
6.57803e-06
3.13555e-07
6.58118e-06
2.63787e-07
2.32403e-07
6.58792e-06
6.9027e-06
2.63484e-07
6.86675e-06
-3.90995e-07
6.8955e-06
2.2612e-07
6.8542e-06
-8.33562e-09
6.90357e-06
3.63433e-07
6.89903e-06
2.812e-07
6.89012e-06
-3.6254e-09
6.91005e-06
1.61068e-07
6.87121e-06
-1.08841e-07
6.85596e-06
-1.49581e-07
6.85529e-06
1.12792e-07
6.83292e-06
1.10411e-07
6.84246e-06
1.77302e-07
6.85975e-06
3.35644e-07
6.85912e-06
3.29468e-07
6.86713e-06
2.94434e-07
6.88471e-06
3.08598e-07
6.89282e-06
3.05445e-07
6.89598e-06
2.6062e-07
2.26888e-07
6.9015e-06
7.23255e-06
2.50074e-07
7.19589e-06
-3.54336e-07
7.22439e-06
1.97613e-07
7.18612e-06
2.99379e-08
7.22975e-06
3.198e-07
7.23109e-06
2.79868e-07
7.21808e-06
9.37726e-09
7.23697e-06
1.42186e-07
7.20241e-06
-7.42892e-08
7.1839e-06
-1.31072e-07
7.18542e-06
1.11273e-07
7.16557e-06
1.30259e-07
7.17091e-06
1.71962e-07
7.18915e-06
3.17409e-07
7.19077e-06
3.27845e-07
7.19623e-06
2.88979e-07
7.21259e-06
2.92237e-07
7.22248e-06
2.95555e-07
7.2259e-06
2.57198e-07
2.22093e-07
7.23069e-06
7.57812e-06
2.36179e-07
7.54089e-06
-3.17105e-07
7.56888e-06
1.69628e-07
7.5341e-06
6.47181e-08
7.57155e-06
2.82346e-07
7.57852e-06
2.72894e-07
7.56273e-06
2.51752e-08
7.5792e-06
1.25713e-07
7.54926e-06
-4.4354e-08
7.5281e-06
-1.09905e-07
7.53083e-06
1.08539e-07
7.51402e-06
1.47072e-07
7.51567e-06
1.70308e-07
7.53379e-06
2.99296e-07
7.53802e-06
3.23609e-07
7.54181e-06
2.85192e-07
7.55627e-06
2.77775e-07
7.56769e-06
2.84142e-07
7.57169e-06
2.53191e-07
2.17825e-07
7.57596e-06
7.94016e-06
2.21829e-07
7.90243e-06
-2.79373e-07
7.92966e-06
1.42392e-07
7.89882e-06
9.55598e-08
7.92974e-06
2.51424e-07
7.9417e-06
2.60935e-07
7.92463e-06
4.22494e-08
7.93768e-06
1.12667e-07
7.91231e-06
-1.89857e-08
7.88935e-06
-8.69516e-08
7.89231e-06
1.05584e-07
7.8788e-06
1.60578e-07
7.8774e-06
1.71707e-07
7.89452e-06
2.82181e-07
7.90139e-06
3.16737e-07
7.90449e-06
2.82087e-07
7.9167e-06
2.65567e-07
7.92909e-06
2.71753e-07
7.93416e-06
2.48123e-07
2.14148e-07
7.93784e-06
8.31941e-06
2.07096e-07
8.28132e-06
-2.41276e-07
8.30744e-06
1.16271e-07
8.28108e-06
1.21916e-07
8.30527e-06
2.27233e-07
8.32109e-06
2.45114e-07
8.3044e-06
5.89401e-08
8.31343e-06
1.03639e-07
8.29217e-06
2.27797e-09
8.26836e-06
-6.31454e-08
8.27068e-06
1.03269e-07
8.26037e-06
1.70889e-07
8.2569e-06
1.75176e-07
8.27224e-06
2.66843e-07
8.28153e-06
3.07445e-07
8.28477e-06
2.78841e-07
8.29486e-06
2.55484e-07
8.30749e-06
2.59121e-07
8.31393e-06
2.41684e-07
2.10866e-07
8.31721e-06
8.71666e-06
1.921e-07
8.67854e-06
-2.03154e-07
8.70293e-06
9.18753e-08
8.6817e-06
1.4315e-07
8.69921e-06
2.0972e-07
8.71752e-06
2.26806e-07
8.70256e-06
7.38984e-08
8.70758e-06
9.86235e-08
8.6895e-06
2.03592e-08
8.66568e-06
-3.93303e-08
8.66664e-06
1.02305e-07
8.65933e-06
1.78208e-07
8.65476e-06
1.79739e-07
8.66802e-06
2.53586e-07
8.67921e-06
2.96255e-07
8.68323e-06
2.74818e-07
8.69162e-06
2.47098e-07
8.70385e-06
2.46893e-07
8.71161e-06
2.33921e-07
2.07488e-07
8.71499e-06
9.13271e-06
1.77009e-07
9.09516e-06
-1.65605e-07
9.11699e-06
7.00501e-08
9.10155e-06
1.58586e-07
9.11276e-06
1.98506e-07
9.13178e-06
2.07788e-07
9.11963e-06
8.60481e-08
9.12097e-06
9.72869e-08
9.10508e-06
3.62426e-08
9.08172e-06
-1.59647e-08
9.08108e-06
1.02944e-07
9.07644e-06
1.82852e-07
9.07184e-06
1.84335e-07
9.08305e-06
2.4238e-07
9.09546e-06
2.83843e-07
9.10059e-06
2.69687e-07
9.10781e-06
2.39872e-07
9.11916e-06
2.35547e-07
9.12799e-06
2.25096e-07
2.03496e-07
9.13198e-06
9.56843e-06
1.6204e-07
9.53227e-06
-1.29448e-07
9.55062e-06
5.17064e-08
9.54144e-06
1.6776e-07
9.54713e-06
1.92818e-07
9.56479e-06
1.90126e-07
9.55588e-06
9.49643e-08
9.55441e-06
9.8756e-08
9.53982e-06
5.08274e-08
9.51733e-06
6.53031e-09
9.51533e-06
1.04947e-07
9.51304e-06
1.85142e-07
9.50922e-06
1.8815e-07
9.51848e-06
2.33124e-07
9.53142e-06
2.70897e-07
9.53776e-06
2.63346e-07
9.54426e-06
2.33376e-07
9.55451e-06
2.253e-07
9.56392e-06
2.15679e-07
1.98494e-07
9.56893e-06
1.00247e-05
1.47442e-07
9.99082e-06
-9.55388e-08
1.0005e-05
3.75729e-08
1.00019e-05
1.70855e-07
1.00033e-05
1.91364e-07
1.00176e-05
1.7588e-07
1.00116e-05
1.00903e-07
1.00087e-05
1.01729e-07
9.99518e-06
6.43005e-08
9.97392e-06
2.77919e-08
9.97087e-06
1.07993e-07
9.9705e-06
1.85514e-07
9.96778e-06
1.90868e-07
9.9755e-06
2.25407e-07
9.98831e-06
2.5808e-07
9.9957e-06
2.5596e-07
1.00019e-05
2.27217e-07
1.0011e-05
2.16124e-07
1.00205e-05
2.06193e-07
1.92484e-07
1.00265e-05
1.05026e-05
1.33474e-07
1.04717e-05
-6.45916e-08
1.04811e-05
2.81129e-08
1.04832e-05
1.68794e-07
1.04824e-05
1.92165e-07
1.04922e-05
1.66076e-07
1.04882e-05
1.04854e-07
1.04848e-05
1.05123e-07
1.04727e-05
7.64875e-08
1.04529e-05
4.7534e-08
1.0449e-05
1.11889e-07
1.04498e-05
1.84685e-07
1.04484e-05
1.92352e-07
1.0455e-05
2.1874e-07
1.04672e-05
2.45864e-07
1.04755e-05
2.47715e-07
1.04816e-05
2.2115e-07
1.04898e-05
2.07903e-07
1.0499e-05
1.97015e-07
1.85731e-07
1.05057e-05
1.10031e-05
1.20373e-07
1.09756e-05
-3.71047e-08
1.09803e-05
2.34556e-08
1.09862e-05
1.62922e-07
1.09854e-05
1.92932e-07
1.09911e-05
1.60328e-07
1.09878e-05
1.08213e-07
1.09842e-05
1.08719e-07
1.09732e-05
8.74347e-08
1.09553e-05
6.54645e-08
1.09508e-05
1.16408e-07
1.09523e-05
1.83197e-07
1.0952e-05
1.92616e-07
1.09579e-05
2.12896e-07
1.09694e-05
2.34352e-07
1.09782e-05
2.38895e-07
1.09843e-05
2.15041e-07
1.09918e-05
2.00437e-07
1.10005e-05
1.88304e-07
1.78601e-07
1.10076e-05
1.15274e-05
1.0832e-07
1.15036e-05
-1.33273e-08
1.15039e-05
2.31581e-08
1.1512e-05
1.54876e-07
1.15129e-05
1.92004e-07
1.15154e-05
1.57842e-07
1.15118e-05
1.11791e-07
1.15079e-05
1.12645e-07
1.14981e-05
9.72578e-08
1.14821e-05
8.14401e-08
1.14771e-05
1.21361e-07
1.1479e-05
1.81388e-07
1.14798e-05
1.91809e-07
1.1485e-05
2.07631e-07
1.14958e-05
2.23609e-07
1.1505e-05
2.29709e-07
1.15113e-05
2.08721e-07
1.15181e-05
1.93614e-07
1.15262e-05
1.80167e-07
1.71278e-07
1.15336e-05
1.20767e-05
9.74366e-08
1.20567e-05
6.68257e-09
1.20535e-05
2.63773e-08
1.20622e-05
1.46166e-07
1.20655e-05
1.88729e-07
1.2066e-05
1.57331e-07
1.20616e-05
1.16181e-07
1.20571e-05
1.17143e-07
1.20483e-05
1.06007e-07
1.20343e-05
9.5501e-08
1.20292e-05
1.26415e-07
1.20311e-05
1.7953e-07
1.20327e-05
1.90197e-07
1.20376e-05
2.02763e-07
1.20475e-05
2.13624e-07
1.20569e-05
2.20337e-07
1.20635e-05
2.02093e-07
1.20699e-05
1.87269e-07
1.20774e-05
1.72692e-07
1.63857e-07
1.20848e-05
1.26523e-05
8.77778e-08
1.26359e-05
2.30429e-08
1.26302e-05
3.2037e-08
1.26385e-05
1.37883e-07
1.26437e-05
1.83511e-07
1.26438e-05
1.57236e-07
1.26383e-05
1.21668e-07
1.2633e-05
1.22446e-07
1.26251e-05
1.13921e-07
1.2613e-05
1.07652e-07
1.26081e-05
1.31277e-07
1.26099e-05
1.77777e-07
1.26121e-05
1.87993e-07
1.26167e-05
1.98168e-07
1.26259e-05
2.04345e-07
1.26353e-05
2.10996e-07
1.26423e-05
1.9512e-07
1.26484e-05
1.81142e-07
1.26552e-05
1.65868e-07
1.56683e-07
1.26624e-05
1.32554e-05
7.92772e-08
1.32423e-05
3.61331e-08
1.32354e-05
3.89372e-08
1.32423e-05
1.31028e-07
1.32489e-05
1.76954e-07
1.32496e-05
1.56533e-07
1.32435e-05
1.27739e-07
1.3237e-05
1.28944e-07
1.32296e-05
1.2133e-07
1.32193e-05
1.17896e-07
1.3215e-05
1.35642e-07
1.32167e-05
1.76083e-07
1.32192e-05
1.85463e-07
1.32236e-05
1.93765e-07
1.32321e-05
1.95806e-07
1.32414e-05
2.0178e-07
1.32486e-05
1.87837e-07
1.32548e-05
1.7501e-07
1.32611e-05
1.59576e-07
1.49907e-07
1.32678e-05
1.38876e-05
7.18561e-08
1.38775e-05
4.62528e-08
1.38702e-05
4.62065e-08
1.38748e-05
1.26383e-07
1.3882e-05
1.69798e-07
1.38841e-05
1.54472e-07
1.3878e-05
1.33785e-07
1.38702e-05
1.36726e-07
1.3863e-05
1.28586e-07
1.38545e-05
1.26347e-07
1.3851e-05
1.3918e-07
1.38527e-05
1.74358e-07
1.38556e-05
1.8262e-07
1.38597e-05
1.89599e-07
1.38675e-05
1.88016e-07
1.38765e-05
1.92772e-07
1.38839e-05
1.80415e-07
1.38902e-05
1.6871e-07
1.38963e-05
1.53541e-07
1.43751e-07
1.39024e-05
1.45503e-05
6.51732e-08
1.45422e-05
5.44451e-08
1.45345e-05
5.38314e-08
1.45377e-05
1.23184e-07
1.45448e-05
1.62696e-07
1.45481e-05
1.51208e-07
1.45427e-05
1.39197e-07
1.45341e-05
1.45283e-07
1.45269e-05
1.35819e-07
1.45198e-05
1.33395e-07
1.45173e-05
1.41721e-07
1.45193e-05
1.72383e-07
1.45224e-05
1.79455e-07
1.45265e-05
1.85541e-07
1.45335e-05
1.81032e-07
1.45422e-05
1.84059e-07
1.45497e-05
1.72922e-07
1.45561e-05
1.62317e-07
1.45622e-05
1.47388e-07
1.38145e-07
1.45678e-05
1.52443e-05
5.97551e-08
1.52334e-05
6.53882e-08
1.52279e-05
5.93115e-08
1.52334e-05
1.17669e-07
1.52398e-05
1.56255e-07
1.52419e-05
1.49151e-07
1.52378e-05
1.43255e-07
1.523e-05
1.53084e-07
1.5223e-05
1.42875e-07
1.52169e-05
1.39512e-07
1.52153e-05
1.43324e-07
1.52177e-05
1.69905e-07
1.52213e-05
1.75922e-07
1.52253e-05
1.81488e-07
1.52316e-05
1.74789e-07
1.52398e-05
1.75855e-07
1.52474e-05
1.65317e-07
1.52537e-05
1.5603e-07
1.52599e-05
1.41116e-07
1.32671e-07
1.52654e-05
1.59735e-05
5.35897e-08
1.59772e-05
6.16421e-08
1.59762e-05
6.03536e-08
1.59713e-05
1.22578e-07
1.59664e-05
1.61117e-07
1.59653e-05
1.50231e-07
1.59648e-05
1.43815e-07
1.59595e-05
1.5841e-07
1.59529e-05
1.49485e-07
1.59472e-05
1.45139e-07
1.59462e-05
1.44372e-07
1.59493e-05
1.6678e-07
1.59534e-05
1.7178e-07
1.59577e-05
1.77248e-07
1.59634e-05
1.69112e-07
1.59709e-05
1.68336e-07
1.59785e-05
1.57676e-07
1.59848e-05
1.49723e-07
1.5991e-05
1.34923e-07
1.26951e-07
1.59967e-05
1.67344e-05
4.98056e-08
1.67212e-05
7.48328e-08
1.67158e-05
6.57018e-08
1.672e-05
1.18444e-07
1.67233e-05
1.57831e-07
1.67249e-05
1.48635e-07
1.67268e-05
1.41917e-07
1.67242e-05
1.6101e-07
1.67184e-05
1.55286e-07
1.67129e-05
1.50568e-07
1.67121e-05
1.45162e-07
1.67157e-05
1.63201e-07
1.67205e-05
1.66974e-07
1.67251e-05
1.72629e-07
1.67306e-05
1.63698e-07
1.67373e-05
1.61589e-07
1.67447e-05
1.50257e-07
1.67512e-05
1.43284e-07
1.67571e-05
1.29016e-07
1.21037e-07
1.6763e-05
1.75347e-05
4.54366e-08
1.75326e-05
7.69384e-08
1.75231e-05
7.51918e-08
1.75202e-05
1.21364e-07
1.7521e-05
1.57052e-07
1.75213e-05
1.48287e-07
1.75247e-05
1.38593e-07
1.75249e-05
1.60758e-07
1.75207e-05
1.59537e-07
1.75154e-05
1.55784e-07
1.75146e-05
1.45998e-07
1.75184e-05
1.59415e-07
1.75239e-05
1.61492e-07
1.75292e-05
1.67335e-07
1.75346e-05
1.58243e-07
1.75408e-05
1.55382e-07
1.75478e-05
1.43311e-07
1.75544e-05
1.36676e-07
1.756e-05
1.23367e-07
1.15106e-07
1.7566e-05
1.83711e-05
4.27047e-08
1.83625e-05
8.54994e-08
1.8356e-05
8.16861e-08
1.83578e-05
1.19564e-07
1.836e-05
1.54893e-07
1.83584e-05
1.49846e-07
1.83608e-05
1.36241e-07
1.83636e-05
1.57931e-07
1.83617e-05
1.61479e-07
1.83571e-05
1.60392e-07
1.8356e-05
1.47088e-07
1.83594e-05
1.55939e-07
1.83653e-05
1.55656e-07
1.83712e-05
1.61432e-07
1.83769e-05
1.5255e-07
1.83829e-05
1.49326e-07
1.83892e-05
1.37029e-07
1.83958e-05
1.30089e-07
1.84015e-05
1.17641e-07
1.09528e-07
1.84071e-05
1.92491e-05
3.9985e-08
1.92439e-05
9.07145e-08
1.92356e-05
9.00159e-08
1.92364e-05
1.18768e-07
1.92394e-05
1.51849e-07
1.9237e-05
1.52283e-07
1.92374e-05
1.35769e-07
1.92415e-05
1.53892e-07
1.92421e-05
1.60823e-07
1.9239e-05
1.63557e-07