/*--------------------------------*- C++ -*----------------------------------*\
| =========                 |                                                 |
| \\      /  F ield         | OpenFOAM: The Open Source CFD Toolbox           |
|  \\    /   O peration     | Version:  2506                                  |
|   \\  /    A nd           | Website:  www.openfoam.com                      |
|    \\/     M anipulation  |                                                 |
\*---------------------------------------------------------------------------*/
FoamFile
{
    version     2.0;
    format      ascii;
    arch        "LSB;label=32;scalar=64";
    class       volScalarField;
    location    "7.05";
    object      p;
}
// * * * * * * * * * * * * * * * * * * * * * * * * * * * * * * * * * * * * * //

dimensions      [0 2 -2 0 0 0 0];

internalField   nonuniform List<scalar> 
9600
(
3.5167e-10
-0.00228911
0.000689208
9.47117e-05
0.00196818
0.00254645
-0.000381601
-0.00513347
-0.00260303
-0.000634393
-0.00209672
-0.000856631
0.00199452
0.0013677
0.00402297
0.00406951
0.0058976
0.00594201
0.00792802
0.0114427
8.59805e-07
-0.00229032
0.000689932
8.73146e-05
0.00197478
0.00252204
-0.0003704
-0.00510011
-0.00261466
-0.000601025
-0.00209794
-0.000867225
0.00200446
0.00133455
0.0040286
0.00389561
0.00589685
0.00578026
0.00796988
0.0109069
1.67601e-06
-0.00229164
0.000689955
7.79621e-05
0.00197956
0.00248768
-0.000344231
-0.0050597
-0.0026274
-0.000566299
-0.00210802
-0.00088326
0.00201233
0.00129348
0.00401705
0.00376461
0.00587778
0.00563236
0.0079759
0.010252
1.97071e-06
-0.00229319
0.000689282
6.66839e-05
0.00197626
0.00243864
-0.000323945
-0.00500877
-0.00263982
-0.00055503
-0.00212106
-0.000901926
0.00201284
0.00124721
0.0039899
0.00362869
0.00584146
0.00550367
0.00790953
0.00972349
1.69379e-06
-0.00229509
0.000688396
5.22624e-05
0.00196571
0.0023731
-0.000313618
-0.00494347
-0.00265217
-0.000576389
-0.00213177
-0.000922486
0.002009
0.00119608
0.0039598
0.00348453
0.00580617
0.00537452
0.00780657
0.00927017
7.41998e-07
-0.00229747
0.000687579
3.4114e-05
0.0019494
0.00229095
-0.000308967
-0.00486419
-0.0026654
-0.000590885
-0.00214023
-0.000942812
0.00200224
0.00114203
0.00392865
0.00333749
0.00576858
0.00525005
0.00767647
0.00885199
-1.02825e-06
-0.00230039
0.000687046
1.21265e-05
0.00192814
0.00219476
-0.000305803
-0.00477358
-0.00267956
-0.000607325
-0.00214814
-0.000961789
0.00199512
0.00108478
0.00389474
0.00319172
0.00571842
0.00513673
0.00750582
0.00845881
-3.72103e-06
-0.0023038
0.000686989
-1.35543e-05
0.00190275
0.00208784
-0.000302218
-0.00467429
-0.00269391
-0.000623526
-0.00215656
-0.000979799
0.00199007
0.00102275
0.00385704
0.00305067
0.00565106
0.00503859
0.00728771
0.00809034
-7.37744e-06
-0.00230761
0.000687513
-4.2569e-05
0.00187404
0.00197323
-0.000297451
-0.00456863
-0.00270755
-0.000637605
-0.00216586
-0.000997808
0.00198703
0.000955332
0.00381387
0.002918
0.00556342
0.00495363
0.0070229
0.00774401
-1.19805e-05
-0.00231171
0.000688581
-7.44467e-05
0.00184258
0.00185353
-0.000291352
-0.00445874
-0.00271999
-0.000648541
-0.00217602
-0.00101666
0.00198481
0.000883391
0.00376306
0.00279639
0.00545236
0.00487903
0.00671458
0.00741389
-1.74701e-05
-0.00231604
0.000689981
-0.000108748
0.00180878
0.00173087
-0.000284286
-0.00434645
-0.0027314
-0.000655973
-0.00218698
-0.00103649
0.00198275
0.00080832
0.00370238
0.00268744
0.00531494
0.00481337
0.00636681
0.00707258
-2.3756e-05
-0.00232066
0.000691324
-0.000145162
0.00177294
0.0016069
-0.000276901
-0.00423308
-0.00274242
-0.000660081
-0.00219879
-0.0010573
0.00198058
0.000731442
0.0036296
0.00259194
0.00514865
0.00475283
0.00598558
0.00672151
-3.0724e-05
-0.00232568
0.000692085
-0.000183491
0.00173529
0.00148262
-0.000269832
-0.00411938
-0.00275404
-0.000661087
-0.00221175
-0.00108008
0.0019778
0.00065426
0.00354239
0.00251016
0.0049524
0.0046929
0.00557958
0.00635159
-3.82516e-05
-0.00233121
0.000691706
-0.000223523
0.0016959
0.00135841
-0.00026371
-0.00400555
-0.00276752
-0.00065598
-0.00222661
-0.00110692
0.0019738
0.000578468
0.0034378
0.00244214
0.0047272
0.00462744
0.00515868
0.00595586
-4.62401e-05
-0.00233727
0.000689711
-0.000264917
0.00165469
0.00123429
-0.000259425
-0.00389154
-0.00278375
-0.000649726
-0.00224432
-0.00114022
0.00196772
0.000505972
0.00331255
0.00238671
0.00447621
0.00454874
0.00473194
0.00553082
-5.46501e-05
-0.00234373
0.000685772
-0.0003072
0.00161144
0.00111019
-0.000258029
-0.00377737
-0.00280315
-0.000644582
-0.00226538
-0.00118144
0.0019582
0.000438582
0.00316465
0.0023406
0.00420358
0.00444909
0.00430763
0.00507644
-6.3513e-05
-0.00235043
0.000679692
-0.000349863
0.00156583
0.000986185
-0.000260469
-0.00366319
-0.00282602
-0.000639063
-0.0022895
-0.00123064
0.00194389
0.00037709
0.0029941
0.00229917
0.00391301
0.00432159
0.00389326
0.00459472
-7.29225e-05
-0.00235718
0.000671342
-0.000392484
0.00151741
0.000862594
-0.000267537
-0.00354916
-0.00285258
-0.000632854
-0.00231574
-0.00128717
0.00192383
0.000321342
0.00280221
0.00225724
0.00360834
0.00416199
0.00349484
0.00408835
-8.30177e-05
-0.00236388
0.000660606
-0.000434795
0.00146564
0.000739903
-0.000279833
-0.00343528
-0.00288304
-0.000626013
-0.00234274
-0.00135063
0.00189752
0.0002706
0.00259076
0.00221062
0.00329355
0.00396805
0.00311702
0.00356087
-9.39558e-05
-0.00237043
0.000647333
-0.000476655
0.00140987
0.000618714
-0.000297856
-0.0033215
-0.00291754
-0.00061889
-0.00236911
-0.00142136
0.00186486
0.00022367
0.00236156
0.00215654
0.0029716
0.00373793
0.00276299
0.00301765
-0.000105889
-0.00237682
0.000631316
-0.00051796
0.00134944
0.000499687
-0.000322154
-0.00320773
-0.00295608
-0.000612217
-0.00239339
-0.0015005
0.00182609
0.000179721
0.00211538
0.00209244
0.00264596
0.00347052
0.00243311
0.00246575
-0.00011896
-0.00238302
0.000612298
-0.000558583
0.00128369
0.000383475
-0.000353361
-0.00309385
-0.00299848
-0.000607046
-0.0024141
-0.00158973
0.00178172
0.000138526
0.00185215
0.00201645
0.00231993
0.0031647
0.00212632
0.00191424
-0.000133303
-0.00238903
0.000589982
-0.000598327
0.00121194
0.000270663
-0.000392123
-0.00297986
-0.00304438
-0.000604746
-0.00242966
-0.0016904
0.00173129
0.000100385
0.00157224
0.001927
0.00199585
0.00281875
0.00184096
0.00137535
-0.000149032
-0.00239485
0.000564009
-0.000636939
0.00113354
0.000161782
-0.000439028
-0.00286592
-0.00309321
-0.000607136
-0.00243803
-0.00180374
0.0016729
6.67651e-05
0.00127575
0.00182162
0.00167882
0.0024319
0.0015703
0.000863683
-0.000166245
-0.00240048
0.00053398
-0.000674138
0.00104782
5.73789e-05
-0.000494557
-0.00275164
-0.00314422
-0.000616512
-0.00243694
-0.00193066
0.00160386
3.98208e-05
0.000962372
0.00169604
0.00137635
0.0020052
0.00130219
0.000394635
-0.000185056
-0.00240593
0.000499461
-0.000709601
0.000954112
-4.21538e-05
-0.000559023
-0.00263898
-0.00319632
-0.000635499
-0.00242441
-0.00207085
0.00152112
2.15329e-05
0.000632689
0.001544
0.00109513
0.00154294
0.00102177
-1.85769e-05
-0.000205573
-0.0024112
0.000459955
-0.000742935
0.000851796
-0.000136574
-0.000632619
-0.00252928
-0.00324771
-0.000667085
-0.00239936
-0.00222275
0.00142075
1.36048e-05
0.000288811
0.0013586
0.000840664
0.00105332
0.000712063
-0.000370192
-0.000227899
-0.00241633
0.000414943
-0.000773741
0.000740299
-0.000225784
-0.000715234
-0.00242342
-0.00329635
-0.000714407
-0.00236135
-0.00238345
0.00129758
1.73702e-05
-6.45678e-05
0.00113213
0.000614835
0.000549435
0.000357168
-0.000665192
-0.000252158
-0.0024213
0.000363857
-0.000801662
0.000619281
-0.000309943
-0.000806313
-0.00232312
-0.00334016
-0.000780312
-0.00231074
-0.002549
0.00114608
3.26606e-05
-0.000420059
0.000856744
0.000414057
4.97021e-05
-5.38472e-05
-0.0009209
-0.00027847
-0.00242607
0.00030604
-0.0008264
0.000488538
-0.000389292
-0.000904926
-0.00223046
-0.0033765
-0.000866828
-0.00225026
-0.00271453
0.000961977
5.63788e-05
-0.000768894
0.000527806
0.000229404
-0.000424975
-0.00052297
-0.00116634
-0.000307013
-0.00243058
0.000240885
-0.000847752
0.000348054
-0.000464459
-0.00100952
-0.00214802
-0.00340325
-0.000974949
-0.0021837
-0.00287467
0.000742389
8.24848e-05
-0.00110151
0.000145931
4.60718e-05
-0.000856543
-0.00104114
-0.00143637
-0.000338011
-0.00243467
0.000167808
-0.000865663
0.000198118
-0.000536527
-0.00111818
-0.00207895
-0.00341867
-0.0011046
-0.00211576
-0.00302382
0.000485784
0.000102592
-0.00140802
-0.000284612
-0.000153306
-0.00123336
-0.00159047
-0.00176264
-0.000371679
-0.00243819
8.62555e-05
-0.0008802
3.92523e-05
-0.000606843
-0.00122838
-0.00202644
-0.0034219
-0.00125435
-0.0020533
-0.00315646
0.000193611
0.000106725
-0.00167995
-0.000755789
-0.000385807
-0.00155306
-0.00214493
-0.002164
-0.000408272
-0.00244097
-4.18517e-06
-0.000891634
-0.000127487
-0.000677412
-0.00133709
-0.00199307
-0.00341384
-0.00142128
-0.00200328
-0.00326913
-0.00013027
8.45649e-05
-0.00191267
-0.00125506
-0.000665516
-0.00182438
-0.00267437
-0.00263872
-0.00044811
-0.00244282
-0.000103849
-0.000900044
-0.000300543
-0.000750576
-0.00144166
-0.00198048
-0.00339618
-0.00160154
-0.00197222
-0.00336117
-0.000479802
2.66205e-05
-0.00210636
-0.00176855
-0.000999407
-0.00206147
-0.00315489
-0.00316951
-0.000491539
-0.00244356
-0.000213035
-0.000907194
-0.000477962
-0.000828508
-0.00153954
-0.00198926
-0.00337207
-0.00179031
-0.00196604
-0.00343397
-0.00084711
-7.48692e-05
-0.00226459
-0.00228192
-0.00138874
-0.00228278
-0.00357447
-0.00372939
-0.000538869
-0.00244315
-0.000331773
-0.000913683
-0.000657328
-0.000913813
-0.00162899
-0.00201864
-0.00334606
-0.0019825
-0.00198826
-0.00349058
-0.00122428
-0.000225323
-0.00239388
-0.00278045
-0.00183028
-0.00250937
-0.00393395
-0.00428331
-0.000590399
-0.00244164
-0.000459756
-0.000920906
-0.000836159
-0.00101178
-0.00170885
-0.00206642
-0.00332317
-0.00217383
-0.00204032
-0.00353578
-0.00160405
-0.000427489
-0.00250358
-0.00325194
-0.00231692
-0.00275691
-0.00424191
-0.0048018
-0.000646423
-0.00243911
-0.000596548
-0.000930459
-0.00101163
-0.00112305
-0.00177953
-0.00212934
-0.0033088
-0.00236187
-0.00212224
-0.00357493
-0.00197976
-0.000681284
-0.00260477
-0.00368663
-0.00283962
-0.00303578
-0.00450887
-0.00527037
-0.000707178
-0.00243578
-0.000741468
-0.00094421
-0.00118068
-0.00124944
-0.00184323
-0.00220288
-0.00330763
-0.00254689
-0.00223257
-0.00361357
-0.00234573
-0.000984384
-0.00270908
-0.00407688
-0.00338799
-0.00335475
-0.00474565
-0.00568663
-0.000772851
-0.00243195
-0.000893578
-0.000964325
-0.00134056
-0.00139169
-0.00190433
-0.00228224
-0.00332143
-0.00272959
-0.00236927
-0.00365776
-0.00269883
-0.00133162
-0.00282749
-0.00441869
-0.00394816
-0.0037213
-0.00496439
-0.0060526
-0.000843715
-0.00242794
-0.00105171
-0.000993143
-0.0014889
-0.00154928
-0.00196811
-0.002364
-0.00335007
-0.00291141
-0.00253024
-0.00371334
-0.00303807
-0.00171548
-0.00297011
-0.00471216
-0.00450283
-0.00414011
-0.00517953
-0.00636904
-0.000920119
-0.00242403
-0.00121456
-0.00103325
-0.00162368
-0.00172061
-0.00204014
-0.0024459
-0.00340008
-0.00309412
-0.00271365
-0.00378427
-0.00336287
-0.0021282
-0.00314465
-0.00496277
-0.0050354
-0.00460876
-0.00540895
-0.00663701
-0.00100243
-0.00242042
-0.00138067
-0.00108743
-0.00174368
-0.00190247
-0.00212668
-0.00252694
-0.00345433
-0.00327973
-0.00291746
-0.00387319
-0.00367363
-0.00256165
-0.00335533
-0.00518068
-0.00553219
-0.00511597
-0.00567293
-0.00686412
-0.00109111
-0.00241749
-0.00154808
-0.00115831
-0.00184901
-0.00209035
-0.0022328
-0.00260903
-0.00351701
-0.00346898
-0.00313982
-0.00398267
-0.00397156
-0.0030077
-0.00360352
-0.00537653
-0.00598362
-0.00564595
-0.00598752
-0.00706709
-0.00118651
-0.00241587
-0.0017145
-0.00124819
-0.00194134
-0.00227856
-0.00236126
-0.00269731
-0.0035866
-0.00366153
-0.00337897
-0.0041139
-0.00425713
-0.00345836
-0.00388869
-0.00556202
-0.00638685
-0.00618102
-0.00635624
-0.0072699
-0.0012888
-0.00241639
-0.00187746
-0.0013587
-0.0020248
-0.0024615
-0.00251181
-0.00279811
-0.00366389
-0.00385605
-0.003632
-0.00426714
-0.00453088
-0.00390629
-0.00420997
-0.00574935
-0.00674312
-0.00670409
-0.00677348
-0.00749764
-0.00139772
-0.00242046
-0.00203441
-0.00149056
-0.00210574
-0.00263523
-0.00268085
-0.00291523
-0.00375046
-0.00405123
-0.00389587
-0.00444195
-0.00479459
-0.0043468
-0.0045642
-0.00594942
-0.00705826
-0.00720062
-0.00722543
-0.00776696
-0.00151265
-0.00243012
-0.00218372
-0.00164298
-0.00219109
-0.00279762
-0.00286323
-0.00305017
-0.00384801
-0.0042469
-0.00416817
-0.00463697
-0.00505068
-0.00477667
-0.00494613
-0.00617164
-0.00734196
-0.00765973
-0.00769331
-0.00808275
-0.00163289
-0.00244515
-0.00232483
-0.00181286
-0.00228727
-0.00294906
-0.00305382
-0.00320368
-0.00395817
-0.00444301
-0.00444676
-0.00485162
-0.00530205
-0.00519162
-0.00534914
-0.00642245
-0.00760568
-0.0080788
-0.00816021
-0.00843712
-0.00175778
-0.00247257
-0.00245772
-0.00199589
-0.00239932
-0.00309336
-0.00324773
-0.00337442
-0.00408241
-0.00463966
-0.00472977
-0.00508587
-0.00555189
-0.00558792
-0.0057662
-0.00670486
-0.00785985
-0.0084604
-0.00861473
-0.00881677
-0.00188654
-0.00251096
-0.00258356
-0.00218729
-0.00252998
-0.00323674
-0.00344308
-0.00355947
-0.00422156
-0.00483717
-0.0050152
-0.00533848
-0.00580321
-0.00596411
-0.00618864
-0.0070183
-0.00811532
-0.00880883
-0.00904966
-0.00921112
-0.00201827
-0.00256118
-0.00270468
-0.00238292
-0.00267989
-0.00338528
-0.00364059
-0.00375609
-0.00437377
-0.00503478
-0.00530082
-0.00560848
-0.00606067
-0.00632109
-0.00660593
-0.00735738
-0.00838378
-0.00913173
-0.00945888
-0.00961186
-0.00215231
-0.00262338
-0.00282406
-0.00258085
-0.00284659
-0.00354325
-0.00384386
-0.00396358
-0.00453633
-0.00523123
-0.00558494
-0.0058942
-0.00632797
-0.00666197
-0.00701055
-0.00771282
-0.00867117
-0.00944025
-0.0098389
-0.0100097
-0.00228836
-0.00269645
-0.00294416
-0.00278065
-0.00302739
-0.00371295
-0.00405673
-0.00418214
-0.00470809
-0.00542534
-0.00586525
-0.00619306
-0.00660796
-0.00699081
-0.00739846
-0.00807395
-0.0089746
-0.00974659
-0.0101943
-0.0103942
-0.00242647
-0.00278088
-0.00306682
-0.00298169
-0.00321959
-0.00389432
-0.00428091
-0.00441306
-0.00488838
-0.00561577
-0.00613859
-0.00650253
-0.00690404
-0.00731262
-0.00776865
-0.00843342
-0.00928713
-0.0100564
-0.0105354
-0.010759
-0.00256539
-0.0028752
-0.0031958
-0.00318839
-0.00342185
-0.00408298
-0.00451489
-0.00465773
-0.00507839
-0.00580265
-0.00640197
-0.00681732
-0.00721692
-0.00763495
-0.00812324
-0.00878611
-0.00960227
-0.0103659
-0.0108705
-0.0111079
-0.00270455
-0.00297364
-0.00333597
-0.00340767
-0.00363379
-0.00427319
-0.00475268
-0.0049177
-0.00528309
-0.00598787
-0.00665284
-0.00713068
-0.0075432
-0.0079654
-0.00846805
-0.00912803
-0.00991477
-0.0106682
-0.0111996
-0.0114502
-0.00285007
-0.00308749
-0.00347877
-0.00362787
-0.00385236
-0.0044639
-0.00499071
-0.00519328
-0.00551128
-0.00617726
-0.00689003
-0.00743656
-0.00787733
-0.00830656
-0.00881126
-0.00946079
-0.0102236
-0.0109617
-0.0115156
-0.0117873
-0.00300179
-0.00321196
-0.00362464
-0.00384889
-0.0040808
-0.00465751
-0.00522413
-0.0054814
-0.005767
-0.00637835
-0.00711398
-0.0077276
-0.00821216
-0.00865485
-0.00915727
-0.00978932
-0.0105284
-0.0112486
-0.0118136
-0.0121129
-0.00315901
-0.00334765
-0.00377518
-0.0040707
-0.00431984
-0.00485628
-0.00544905
-0.00577362
-0.00604837
-0.0065987
-0.00732858
-0.00799888
-0.00853895
-0.00900572
-0.00950739
-0.0101179
-0.0108301
-0.0115316
-0.0120956
-0.0124194
-0.00332315
-0.003496
-0.00393091
-0.00429005
-0.00456694
-0.00506455
-0.00566681
-0.00606008
-0.00634959
-0.00684471
-0.00754419
-0.00825113
-0.00884869
-0.00935291
-0.0098608
-0.0104493
-0.0111304
-0.0118123
-0.0123678
-0.0127043
-0.00349395
-0.00365586
-0.00409241
-0.00450675
-0.0048203
-0.00528604
-0.00588105
-0.00633464
-0.00666121
-0.0071163
-0.00777019
-0.00848929
-0.00913589
-0.00968591
-0.0102129
-0.0107853
-0.0114309
-0.0120902
-0.0126356
-0.0129729
-0.00367062
-0.00382561
-0.00426279
-0.00472175
-0.00507686
-0.0055207
-0.00609589
-0.00659508
-0.006972
-0.00740887
-0.0080125
-0.00872102
-0.00940284
-0.0099966
-0.010553
-0.0111234
-0.0117344
-0.0123641
-0.0128995
-0.0132325
-0.00385359
-0.00400636
-0.00444195
-0.00493485
-0.00533368
-0.00576773
-0.0063171
-0.00684381
-0.0072719
-0.00771338
-0.00827362
-0.00895303
-0.00965253
-0.0102835
-0.0108701
-0.0114549
-0.0120429
-0.0126358
-0.013157
-0.0134841
-0.00404283
-0.0041954
-0.0046305
-0.00514711
-0.00558782
-0.00602341
-0.0065479
-0.00708596
-0.00755753
-0.00801822
-0.00855135
-0.0091933
-0.00988844
-0.0105477
-0.0111592
-0.0117649
-0.012351
-0.0129103
-0.0134101
-0.0137295
-0.00423858
-0.00439388
-0.00482794
-0.00536032
-0.00583866
-0.00628528
-0.00678855
-0.00732498
-0.00782823
-0.00831122
-0.00883485
-0.00944533
-0.0101186
-0.0107914
-0.0114229
-0.0120416
-0.0126396
-0.0131808
-0.0136576
-0.0139724
-0.00444007
-0.0045972
-0.00503464
-0.00557784
-0.00608493
-0.00654847
-0.00703826
-0.00756732
-0.00808909
-0.00858984
-0.00911009
-0.00969883
-0.010347
-0.0110187
-0.011667
-0.0122917
-0.0128974
-0.0134331
-0.0138862
-0.0141953
-0.00464802
-0.00480685
-0.00524839
-0.00579895
-0.0063276
-0.00680943
-0.00729193
-0.00781242
-0.00834404
-0.00885963
-0.00937681
-0.00994304
-0.0105635
-0.011221
-0.0118824
-0.0125197
-0.0131316
-0.0136733
-0.0141071
-0.0143981
-0.00486301
-0.00502546
-0.00546723
-0.00602328
-0.00656843
-0.00706809
-0.00754847
-0.00805766
-0.00858718
-0.00911405
-0.00963737
-0.0101853
-0.0107722
-0.0113961
-0.0120481
-0.0126988
-0.0133227
-0.0138841
-0.0143262
-0.0146097
-0.00508174
-0.00524364
-0.00569149
-0.00625534
-0.00680912
-0.00732163
-0.0078074
-0.00830998
-0.00882563
-0.00934839
-0.00987562
-0.0104143
-0.0109765
-0.0115631
-0.0121753
-0.012811
-0.0134354
-0.0140128
-0.0144835
-0.0147931
-0.00530614
-0.00546796
-0.00591783
-0.00648796
-0.0070479
-0.00756927
-0.00806301
-0.00856751
-0.00907159
-0.00957723
-0.0100916
-0.0106118
-0.0111514
-0.0117129
-0.0122874
-0.0128862
-0.013484
-0.0140411
-0.0145059
-0.0148336
-0.00553644
-0.00570004
-0.00614706
-0.00671926
-0.00728276
-0.00780875
-0.00831026
-0.00882017
-0.00932362
-0.00981623
-0.0103009
-0.0107779
-0.0112711
-0.011796
-0.0123472
-0.0129302
-0.0135244
-0.0140694
-0.0145136
-0.0147881
-0.00576725
-0.00593415
-0.00638318
-0.00695459
-0.00751484
-0.00804036
-0.00855031
-0.00907199
-0.00958341
-0.0100757
-0.0105248
-0.010924
-0.0113118
-0.0117223
-0.0121801
-0.0127079
-0.0133033
-0.0139468
-0.0145737
-0.0150484
-0.00599853
-0.00616725
-0.00661958
-0.00719073
-0.00774883
-0.00827245
-0.0087904
-0.00932011
-0.0098551
-0.0104109
-0.0109154
-0.0112697
-0.0115364
-0.0118119
-0.0121157
-0.0124141
-0.0126571
-0.0128112
-0.0129058
-0.0130557
-0.0062468
-0.00639543
-0.00682246
-0.00737375
-0.00793194
-0.008489
-0.00904955
-0.00956217
-0.0099758
-0.0103695
-0.0107567
-0.011117
-0.0114665
-0.0118327
-0.0121857
-0.0125065
-0.0128297
-0.0131362
-0.0134238
-0.013736
-0.00654189
-0.00672621
-0.00708167
-0.00753758
-0.00802209
-0.00850939
-0.00901128
-0.00952543
-0.0100244
-0.0105064
-0.010986
-0.0114525
-0.0118506
-0.0121724
-0.0124426
-0.0126385
-0.0127466
-0.0128176
-0.0129081
-0.0130792
-0.00669867
-0.00681146
-0.00717801
-0.00765417
-0.00812434
-0.0085866
-0.00908206
-0.00961045
-0.0101309
-0.0106384
-0.0110855
-0.0114658
-0.011817
-0.0121685
-0.0125862
-0.0131
-0.0137006
-0.0143402
-0.0149582
-0.0155113
-0.00694983
-0.00710071
-0.00739747
-0.00777326
-0.00817472
-0.00861552
-0.00912181
-0.0096766
-0.0102283
-0.0107623
-0.0112567
-0.0116833
-0.012051
-0.0123623
-0.0126041
-0.012756
-0.0128392
-0.0129172
-0.0130577
-0.0133165
-0.00710281
-0.00724473
-0.00751139
-0.00783667
-0.00820222
-0.00863373
-0.00914467
-0.00971356
-0.0102978
-0.0108672
-0.0113793
-0.0118146
-0.0121848
-0.0125045
-0.0128277
-0.0131435
-0.0134276
-0.0136815
-0.0139505
-0.0142887
0.0178435
0.00948239
-0.00195276
-0.00940619
-0.0119901
-0.0120222
-0.0114868
-0.0113404
-0.0118152
-0.0127339
-0.01382
-0.0147892
-0.0154735
-0.015953
-0.0164477
-0.0170958
-0.0178566
-0.018546
-0.0190347
-0.0194571
-0.020031
-0.0207441
-0.0214121
-0.0219627
-0.0224967
-0.0231116
-0.0237981
-0.0244912
-0.0251143
-0.0256856
-0.0262991
-0.0269962
-0.027764
-0.0285966
-0.0294645
-0.0302995
-0.0310617
-0.0317753
-0.0324391
-0.0330779
-0.033767
-0.034513
-0.0352466
-0.0359935
-0.0368079
-0.0376459
-0.0384575
-0.03927
-0.0400863
-0.0408999
-0.0417307
-0.0425927
-0.0434934
-0.0444096
-0.0453459
-0.0462807
-0.0472098
-0.0481589
-0.0491404
-0.0501127
-0.0511095
-0.0521551
-0.0532151
-0.0542404
-0.0552836
-0.0563524
-0.0574231
-0.0585332
-0.0596808
-0.0608575
-0.0620419
-0.0632494
-0.0645022
-0.0657738
-0.0670675
-0.0683433
-0.069632
-0.0709401
-0.0723194
-0.0737479
-0.0751888
-0.0766352
-0.0780941
-0.0795958
-0.0811076
-0.0826731
-0.0842486
-0.0858741
-0.0875065
-0.0892047
-0.0908997
-0.092647
-0.0943717
-0.0961197
-0.0979525
-0.0996864
-0.101505
-0.103258
-0.104679
-0.106161
0.0165
0.00934956
-0.00185061
-0.00929713
-0.0119238
-0.0119862
-0.0114624
-0.0113211
-0.0117995
-0.0127213
-0.0138105
-0.0147824
-0.0154685
-0.0159487
-0.0164433
-0.0170915
-0.0178529
-0.0185429
-0.019032
-0.0194542
-0.020028
-0.0207414
-0.0214098
-0.0219605
-0.0224944
-0.0231094
-0.023796
-0.0244893
-0.0251127
-0.025684
-0.0262975
-0.0269947
-0.0277626
-0.0285953
-0.0294633
-0.0302985
-0.0310608
-0.0317745
-0.0324383
-0.0330772
-0.0337663
-0.0345124
-0.035246
-0.0359929
-0.0368074
-0.0376454
-0.0384571
-0.0392696
-0.0400859
-0.0408994
-0.0417303
-0.0425923
-0.043493
-0.0444092
-0.0453455
-0.0462803
-0.0472095
-0.0481586
-0.0491401
-0.0501125
-0.0511092
-0.0521548
-0.0532149
-0.0542401
-0.0552833
-0.0563522
-0.0574229
-0.058533
-0.0596805
-0.0608573
-0.0620417
-0.0632492
-0.064502
-0.0657736
-0.0670673
-0.0683431
-0.0696318
-0.0709399
-0.0723192
-0.0737478
-0.0751887
-0.0766351
-0.078094
-0.0795957
-0.0811074
-0.082673
-0.0842485
-0.085874
-0.0875064
-0.0892046
-0.0908996
-0.092647
-0.0943716
-0.0961196
-0.0979524
-0.0996863
-0.101505
-0.103258
-0.104679
-0.106161
0.0154572
0.00934204
-0.00158702
-0.00907112
-0.0118078
-0.0119384
-0.0114404
-0.0113068
-0.0117873
-0.0127091
-0.013798
-0.0147712
-0.0154602
-0.0159432
-0.0164395
-0.0170881
-0.0178494
-0.0185398
-0.0190292
-0.0194517
-0.0200257
-0.0207393
-0.0214077
-0.0219585
-0.0224925
-0.0231075
-0.0237943
-0.0244877
-0.0251112
-0.0256825
-0.026296
-0.0269933
-0.0277612
-0.028594
-0.0294624
-0.0302977
-0.0310601
-0.0317738
-0.0324376
-0.0330765
-0.0337656
-0.0345118
-0.0352455
-0.0359923
-0.0368069
-0.037645
-0.0384567
-0.0392692
-0.0400855
-0.0408991
-0.04173
-0.042592
-0.0434927
-0.0444089
-0.0453452
-0.0462801
-0.0472093
-0.0481584
-0.0491398
-0.0501122
-0.051109
-0.0521545
-0.0532147
-0.0542399
-0.0552831
-0.056352
-0.0574227
-0.0585328
-0.0596804
-0.0608572
-0.0620415
-0.063249
-0.0645018
-0.0657734
-0.0670672
-0.068343
-0.0696317
-0.0709398
-0.0723191
-0.0737476
-0.0751886
-0.076635
-0.0780939
-0.0795956
-0.0811073
-0.0826729
-0.0842484
-0.0858739
-0.0875063
-0.0892045
-0.0908995
-0.0926469
-0.0943716
-0.0961195
-0.0979524
-0.0996862
-0.101505
-0.103258
-0.104679
-0.106161
0.014482
0.0092943
-0.00128315
-0.00879498
-0.0116587
-0.011877
-0.0114141
-0.0112906
-0.0117742
-0.012696
-0.0137819
-0.0147527
-0.015444
-0.0159332
-0.0164347
-0.0170849
-0.0178454
-0.0185352
-0.0190255
-0.0194492
-0.0200238
-0.0207371
-0.0214053
-0.0219562
-0.0224907
-0.023106
-0.0237926
-0.0244859
-0.0251095
-0.025681
-0.0262945
-0.0269917
-0.0277596
-0.0285926
-0.0294613
-0.0302969
-0.0310593
-0.031773
-0.0324368
-0.0330757
-0.0337648
-0.0345112
-0.0352449
-0.0359917
-0.0368063
-0.0376446
-0.0384563
-0.0392688
-0.0400852
-0.0408987
-0.0417296
-0.0425916
-0.0434923
-0.0444086
-0.0453449
-0.0462798
-0.047209
-0.0481581
-0.0491396
-0.050112
-0.0511087
-0.0521543
-0.0532145
-0.0542397
-0.0552829
-0.0563518
-0.0574225
-0.0585326
-0.0596802
-0.060857
-0.0620414
-0.0632489
-0.0645016
-0.0657732
-0.067067
-0.0683428
-0.0696316
-0.0709396
-0.0723189
-0.0737475
-0.0751885
-0.0766349
-0.0780938
-0.0795955
-0.0811072
-0.0826728
-0.0842483
-0.0858738
-0.0875063
-0.0892044
-0.0908995
-0.0926468
-0.0943715
-0.0961194
-0.0979523
-0.0996862
-0.101505
-0.103258
-0.104679
-0.106161
0.0134756
0.00915411
-0.000976904
-0.00849567
-0.0114946
-0.0118092
-0.0113857
-0.0112727
-0.0117598
-0.012682
-0.0137623
-0.0147266
-0.0154187
-0.0159165
-0.0164274
-0.0170813
-0.0178401
-0.0185283
-0.0190203
-0.0194469
-0.0200224
-0.0207346
-0.0214017
-0.0219532
-0.0224889
-0.0231048
-0.023791
-0.0244838
-0.0251075
-0.0256794
-0.026293
-0.0269899
-0.0277574
-0.0285907
-0.0294599
-0.0302958
-0.0310583
-0.0317718
-0.0324357
-0.0330746
-0.0337639
-0.0345104
-0.0352441
-0.0359909
-0.0368057
-0.037644
-0.0384558
-0.0392684
-0.0400847
-0.0408982
-0.0417291
-0.0425912
-0.043492
-0.0444082
-0.0453446
-0.0462795
-0.0472087
-0.0481578
-0.0491393
-0.0501117
-0.0511084
-0.052154
-0.0532143
-0.0542395
-0.0552827
-0.0563516
-0.0574222
-0.0585323
-0.0596799
-0.0608568
-0.0620412
-0.0632486
-0.0645015
-0.0657731
-0.0670669
-0.0683427
-0.0696314
-0.0709394
-0.0723187
-0.0737474
-0.0751883
-0.0766348
-0.0780937
-0.0795954
-0.0811071
-0.0826727
-0.0842482
-0.0858737
-0.0875062
-0.0892043
-0.0908994
-0.0926467
-0.0943714
-0.0961193
-0.0979523
-0.0996861
-0.101505
-0.103258
-0.104679
-0.106161
0.0124433
0.00893073
-0.000666713
-0.00817293
-0.0113178
-0.0117375
-0.0113569
-0.0112544
-0.0117446
-0.0126672
-0.0137408
-0.0146962
-0.0153874
-0.0158948
-0.0164175
-0.0170764
-0.017833
-0.0185188
-0.0190137
-0.0194453
-0.0200221
-0.0207315
-0.0213964
-0.0219486
-0.0224869
-0.0231041
-0.0237895
-0.0244812
-0.025105
-0.0256778
-0.0262918
-0.026988
-0.0277548
-0.0285881
-0.029458
-0.0302944
-0.0310568
-0.0317702
-0.0324341
-0.0330732
-0.0337626
-0.0345092
-0.035243
-0.03599
-0.0368048
-0.0376433
-0.0384551
-0.0392678
-0.0400842
-0.0408977
-0.0417286
-0.0425907
-0.0434915
-0.0444078
-0.0453442
-0.0462792
-0.0472084
-0.0481574
-0.049139
-0.0501114
-0.0511081
-0.0521538
-0.053214
-0.0542393
-0.0552824
-0.0563513
-0.057422
-0.0585321
-0.0596797
-0.0608566
-0.062041
-0.0632484
-0.0645013
-0.0657729
-0.0670667
-0.0683425
-0.0696312
-0.0709392
-0.0723185
-0.0737472
-0.0751882
-0.0766346
-0.0780935
-0.0795953
-0.081107
-0.0826726
-0.0842481
-0.0858736
-0.087506
-0.0892042
-0.0908993
-0.0926466
-0.0943714
-0.0961192
-0.0979522
-0.0996861
-0.101505
-0.103259
-0.10468
-0.106161
0.011415
0.00863789
-0.000352451
-0.0078274
-0.0111297
-0.0116635
-0.0113292
-0.0112365
-0.0117284
-0.0126513
-0.0137183
-0.0146641
-0.0153538
-0.0158707
-0.0164058
-0.01707
-0.0178238
-0.0185072
-0.0190063
-0.0194447
-0.0200231
-0.0207283
-0.0213893
-0.0219423
-0.0224841
-0.0231033
-0.0237879
-0.0244779
-0.025102
-0.0256764
-0.0262911
-0.0269863
-0.027752
-0.0285851
-0.0294557
-0.0302926
-0.0310547
-0.0317677
-0.0324318
-0.0330713
-0.033761
-0.0345076
-0.0352416
-0.0359888
-0.0368037
-0.0376423
-0.0384543
-0.0392672
-0.0400835
-0.040897
-0.0417279
-0.0425902
-0.043491
-0.0444073
-0.0453437
-0.0462787
-0.047208
-0.048157
-0.0491385
-0.050111
-0.0511078
-0.0521535
-0.0532138
-0.054239
-0.0552821
-0.0563511
-0.0574217
-0.0585318
-0.0596795
-0.0608564
-0.0620407
-0.0632482
-0.064501
-0.0657727
-0.0670665
-0.0683424
-0.069631
-0.070939
-0.0723183
-0.0737471
-0.0751881
-0.0766345
-0.0780934
-0.0795951
-0.0811068
-0.0826724
-0.0842479
-0.0858735
-0.0875059
-0.0892041
-0.0908992
-0.0926466
-0.0943713
-0.0961191
-0.0979522
-0.099686
-0.101505
-0.103259
-0.10468
-0.106161
0.0104124
0.00827699
-4.5821e-05
-0.00746377
-0.0109309
-0.0115873
-0.0113028
-0.0112195
-0.0117113
-0.0126342
-0.0136952
-0.0146314
-0.0153192
-0.0158456
-0.016393
-0.0170624
-0.0178129
-0.0184938
-0.0189983
-0.0194452
-0.0200258
-0.0207255
-0.021381
-0.0219343
-0.0224801
-0.023102
-0.0237857
-0.0244739
-0.0250983
-0.0256751
-0.0262908
-0.0269851
-0.0277492
-0.028582
-0.0294533
-0.0302907
-0.0310522
-0.0317644
-0.0324286
-0.0330688
-0.0337588
-0.0345055
-0.0352398
-0.0359873
-0.0368023
-0.037641
-0.0384532
-0.0392663
-0.0400827
-0.040896
-0.0417271
-0.0425894
-0.0434904
-0.0444066
-0.045343
-0.0462782
-0.0472075
-0.0481565
-0.049138
-0.0501105
-0.0511074
-0.0521532
-0.0532135
-0.0542387
-0.0552819
-0.0563508
-0.0574214
-0.0585315
-0.0596792
-0.0608561
-0.0620405
-0.0632479
-0.0645008
-0.0657725
-0.0670663
-0.0683422
-0.0696308
-0.0709388
-0.0723181
-0.0737469
-0.0751879
-0.0766343
-0.0780932
-0.079595
-0.0811067
-0.0826723
-0.0842478
-0.0858734
-0.0875058
-0.089204
-0.0908991
-0.0926465
-0.0943712
-0.096119
-0.0979522
-0.099686
-0.101505
-0.103259
-0.104681
-0.106161
0.00944928
0.00784736
0.000239828
-0.00708533
-0.0107194
-0.0115075
-0.0112773
-0.0112037
-0.0116935
-0.0126159
-0.0136714
-0.0145983
-0.015284
-0.0158195
-0.0163794
-0.0170538
-0.0178009
-0.0184794
-0.0189901
-0.0194466
-0.0200297
-0.0207235
-0.0213725
-0.0219253
-0.022475
-0.0231
-0.023783
-0.0244691
-0.025094
-0.0256736
-0.026291
-0.0269843
-0.0277467
-0.0285791
-0.0294512
-0.0302889
-0.0310496
-0.0317605
-0.0324245
-0.0330656
-0.033756
-0.0345028
-0.0352376
-0.0359857
-0.0368007
-0.0376393
-0.0384519
-0.0392652
-0.0400816
-0.0408948
-0.041726
-0.0425885
-0.0434895
-0.0444056
-0.0453421
-0.0462775
-0.047207
-0.0481558
-0.0491372
-0.0501099
-0.051107
-0.0521528
-0.0532131
-0.0542384
-0.0552816
-0.0563505
-0.0574211
-0.0585312
-0.0596789
-0.0608558
-0.0620402
-0.0632476
-0.0645006
-0.0657723
-0.0670661
-0.068342
-0.0696306
-0.0709385
-0.0723178
-0.0737467
-0.0751877
-0.0766341
-0.078093
-0.0795948
-0.0811064
-0.0826721
-0.0842476
-0.0858732
-0.0875056
-0.0892038
-0.090899
-0.0926464
-0.0943711
-0.0961189
-0.0979522
-0.099686
-0.101505
-0.10326
-0.104682
-0.106162
0.00853772
0.00735285
0.000492584
-0.00669505
-0.0104925
-0.011422
-0.0112518
-0.0111892
-0.0116755
-0.0125964
-0.013647
-0.0145649
-0.0152481
-0.0157926
-0.016365
-0.0170447
-0.0177884
-0.0184644
-0.0189815
-0.0194483
-0.0200346
-0.0207223
-0.0213642
-0.0219159
-0.0224694
-0.0230974
-0.0237796
-0.0244637
-0.0250892
-0.0256719
-0.0262913
-0.026984
-0.0277448
-0.0285769
-0.0294498
-0.0302878
-0.0310471
-0.0317561
-0.0324197
-0.0330617
-0.0337526
-0.0344993
-0.0352349
-0.0359838
-0.0367988
-0.0376373
-0.0384502
-0.0392639
-0.0400802
-0.0408934
-0.0417248
-0.0425875