/*--------------------------------*- C++ -*----------------------------------*\
| =========                 |                                                 |
| \\      /  F ield         | OpenFOAM: The Open Source CFD Toolbox           |
|  \\    /   O peration     | Version:  2506                                  |
|   \\  /    A nd           | Website:  www.openfoam.com                      |
|    \\/     M anipulation  |                                                 |
\*---------------------------------------------------------------------------*/
FoamFile
{
    version     2.0;
    format      ascii;
    arch        "LSB;label=32;scalar=64";
    class       volVectorField;
    location    "7.05";
    object      U;
}
// * * * * * * * * * * * * * * * * * * * * * * * * * * * * * * * * * * * * * //

dimensions      [0 1 -1 0 0 0 0];

internalField   nonuniform List<vector> 
9600
(
(0.983079 0.00684574 0)
(1.02364 -0.0161053 0)
(0.969096 0.0122388 0)
(1.01711 -0.00749888 0)
(0.935952 0.024406 0)
(1.07126 -0.0252439 0)
(0.783051 0.0172075 0)
(1.14949 0.000866382 0)
(0.84171 -0.0233389 0)
(1.07391 0.00381362 0)
(0.963238 0.00530786 0)
(1.0362 0.0140052 0)
(0.963311 0.0281493 0)
(1.04327 0.00377627 0)
(0.925978 0.0345622 0)
(1.04852 -0.001692 0)
(0.863957 0.0253194 0)
(1.03778 -0.00481092 0)
(0.816531 0.0165706 0)
(1.03769 -0.0123525 0)
(0.984173 0.00677717 0)
(1.02214 -0.0159277 0)
(0.969853 0.0121802 0)
(1.01468 -0.00708882 0)
(0.938328 0.0237722 0)
(1.06273 -0.023202 0)
(0.792378 0.0165345 0)
(1.12684 0.000528029 0)
(0.861052 -0.0226058 0)
(1.06576 0.00257856 0)
(0.975711 0.00562276 0)
(1.03023 0.0142821 0)
(0.976288 0.0278357 0)
(1.02741 0.00481772 0)
(0.94805 0.0338222 0)
(1.01484 0.000400616 0)
(0.911121 0.0251699 0)
(0.975683 -0.00366534 0)
(0.907895 0.0177992 0)
(0.938502 -0.0135597 0)
(0.98642 0.00670936 0)
(1.0199 -0.0157592 0)
(0.971661 0.0121518 0)
(1.01114 -0.00672695 0)
(0.943121 0.0231961 0)
(1.05287 -0.0217272 0)
(0.81335 0.0153588 0)
(1.09353 -8.86756e-05 0)
(0.897801 -0.0221333 0)
(1.04386 0.000953299 0)
(0.994322 0.00614949 0)
(1.01987 0.0143428 0)
(0.991789 0.02773 0)
(1.0134 0.0056677 0)
(0.967211 0.0336254 0)
(0.999453 0.00160947 0)
(0.942318 0.0250423 0)
(0.967874 -0.00237838 0)
(0.945562 0.016288 0)
(0.955739 -0.00910602 0)
(0.989567 0.00664566 0)
(1.01699 -0.0155898 0)
(0.974486 0.0121438 0)
(1.00739 -0.00641333 0)
(0.950537 0.0227408 0)
(1.04163 -0.0203721 0)
(0.844175 0.0145863 0)
(1.05774 -0.000920568 0)
(0.940031 -0.021642 0)
(1.01516 -0.000291806 0)
(1.00656 0.00648025 0)
(1.01089 0.0143235 0)
(0.998501 0.0277747 0)
(1.00379 0.00626143 0)
(0.975262 0.0338061 0)
(0.99184 0.00233458 0)
(0.957709 0.0255229 0)
(0.970002 -0.00226756 0)
(0.961067 0.0162361 0)
(0.967484 -0.00772837 0)
(0.99317 0.00657775 0)
(1.01354 -0.0154132 0)
(0.978023 0.0121383 0)
(1.00399 -0.00613027 0)
(0.95988 0.0223577 0)
(1.03069 -0.0192747 0)
(0.879264 0.0142944 0)
(1.02902 -0.0019394 0)
(0.973471 -0.0211548 0)
(0.991495 -0.00108079 0)
(1.00832 0.0064601 0)
(1.00441 0.014439 0)
(0.997127 0.0278032 0)
(0.997379 0.00697015 0)
(0.974894 0.0337242 0)
(0.988929 0.00324242 0)
(0.964616 0.0253288 0)
(0.975476 -0.00153646 0)
(0.969991 0.0156564 0)
(0.976301 -0.00632471 0)
(0.996774 0.00650693 0)
(1.00973 -0.0152308 0)
(0.981801 0.0121276 0)
(1.00121 -0.00588922 0)
(0.969904 0.0220269 0)
(1.02133 -0.0183928 0)
(0.912515 0.0142105 0)
(1.01211 -0.00295707 0)
(0.992699 -0.0206836 0)
(0.978826 -0.00147226 0)
(1.00412 0.00624988 0)
(0.999148 0.0146336 0)
(0.993185 0.0278797 0)
(0.994269 0.00768111 0)
(0.973621 0.0335464 0)
(0.989105 0.00391864 0)
(0.9708 0.0247919 0)
(0.981541 -0.000835304 0)
(0.978225 0.0145873 0)
(0.983438 -0.00476915 0)
(1.00006 0.00643745 0)
(1.00583 -0.0150436 0)
(0.985334 0.0121034 0)
(0.999183 -0.00569746 0)
(0.979365 0.0217494 0)
(1.01419 -0.0177137 0)
(0.940101 0.0141518 0)
(1.00565 -0.00378483 0)
(1.00032 -0.0202355 0)
(0.975049 -0.00159355 0)
(0.999192 0.00599957 0)
(0.994813 0.0148059 0)
(0.990419 0.0279117 0)
(0.993969 0.00831545 0)
(0.975617 0.0332637 0)
(0.991805 0.00448139 0)
(0.978136 0.0240952 0)
(0.987973 -8.99321e-05 0)
(0.986103 0.0134598 0)
(0.989836 -0.00304299 0)
(1.00284 0.0063727 0)
(1.00213 -0.0148504 0)
(0.988266 0.0120559 0)
(0.997948 -0.00555209 0)
(0.987406 0.0215118 0)
(1.00922 -0.0171969 0)
(0.960782 0.0140565 0)
(1.00547 -0.00434918 0)
(1.00143 -0.0197768 0)
(0.975077 -0.00157755 0)
(0.995485 0.00577903 0)
(0.991627 0.0148988 0)
(0.989687 0.0278138 0)
(0.995041 0.00884312 0)
(0.980443 0.0328509 0)
(0.995714 0.00500394 0)
(0.985712 0.0232676 0)
(0.993958 0.000725718 0)
(0.993083 0.0123292 0)
(0.995306 -0.00130376 0)
(1.00506 0.00631459 0)
(0.998916 -0.0146487 0)
(0.990446 0.0119768 0)
(0.997439 -0.00544524 0)
(0.993651 0.0212967 0)
(1.00609 -0.0167873 0)
(0.97491 0.0138905 0)
(1.00777 -0.00465988 0)
(1.00004 -0.0192806 0)
(0.975337 -0.00150763 0)
(0.992578 0.00559612 0)
(0.989253 0.0148998 0)
(0.990027 0.0276056 0)
(0.996127 0.00926786 0)
(0.985831 0.032321 0)
(0.999466 0.00553478 0)
(0.992373 0.0223191 0)
(0.999015 0.00162831 0)
(0.998901 0.0111882 0)
(0.999834 0.000380809 0)
(1.00671 0.00626339 0)
(0.996345 -0.0144359 0)
(0.991962 0.0118608 0)
(0.997411 -0.00536693 0)
(0.998198 0.0210911 0)
(1.00433 -0.0164334 0)
(0.983562 0.013642 0)
(1.01027 -0.00477624 0)
(0.998309 -0.0187274 0)
(0.974659 -0.00140377 0)
(0.989716 0.00543597 0)
(0.986958 0.0148231 0)
(0.990092 0.0273215 0)
(0.996512 0.0096032 0)
(0.990198 0.0316736 0)
(1.00245 0.00609503 0)
(0.997762 0.0212548 0)
(1.00313 0.00260944 0)
(1.00359 0.0100506 0)
(1.0035 0.00198311 0)
(1.00781 0.00621823 0)
(0.994475 -0.0142113 0)
(0.993084 0.0117075 0)
(0.997471 -0.00530824 0)
(1.00154 0.0208839 0)
(1.00349 -0.016093 0)
(0.98822 0.0133215 0)
(1.01205 -0.00476174 0)
(0.996966 -0.0181183 0)
(0.973318 -0.00125117 0)
(0.986835 0.00529081 0)
(0.984414 0.014689 0)
(0.98931 0.0269652 0)
(0.996317 0.00985571 0)
(0.993378 0.0308964 0)
(1.00485 0.00667581 0)
(1.00215 0.0200825 0)
(1.00655 0.00364905 0)
(1.00729 0.00898143 0)
(1.00636 0.00350275 0)
(1.00837 0.0061776 0)
(0.993337 -0.0139771 0)
(0.994103 0.0115229 0)
(0.997276 -0.00526382 0)
(1.00425 0.0206643 0)
(1.00311 -0.0157341 0)
(0.99058 0.0129437 0)
(1.013 -0.00466122 0)
(0.99605 -0.0174658 0)
(0.972097 -0.00103722 0)
(0.984581 0.0051597 0)
(0.982145 0.0145073 0)
(0.988283 0.0265335 0)
(0.99633 0.0100265 0)
(0.996142 0.029973 0)
(1.00717 0.00725692 0)
(1.00594 0.018847 0)
(1.00944 0.00472717 0)
(1.01013 0.00803404 0)
(1.0084 0.00488266 0)
(1.00843 0.00613939 0)
(0.992958 -0.0137378 0)
(0.995138 0.0113185 0)
(0.996728 -0.00523066 0)
(1.00665 0.0204218 0)
(1.00291 -0.0153378 0)
(0.992127 0.0125188 0)
(1.01337 -0.00450304 0)
(0.995416 -0.0167751 0)
(0.971721 -0.000768866 0)
(0.983778 0.00503821 0)
(0.981185 0.0142832 0)
(0.988235 0.0260186 0)
(0.997374 0.0101221 0)
(0.999272 0.028909 0)
(1.00967 0.00784234 0)
(1.00922 0.0175898 0)
(1.01172 0.00581126 0)
(1.01211 0.00724606 0)
(1.0096 0.00605443 0)
(1.00804 0.0061006 0)
(0.993298 -0.0134973 0)
(0.996068 0.0111068 0)
(0.996 -0.00520516 0)
(1.00857 0.0201492 0)
(1.00283 -0.0148997 0)
(0.993634 0.0120498 0)
(1.01335 -0.00427958 0)
(0.99502 -0.0160778 0)
(0.972492 -0.000482661 0)
(0.984722 0.00490504 0)
(0.982174 0.0140226 0)
(0.989891 0.0254199 0)
(0.999579 0.0101533 0)
(1.00281 0.0277506 0)
(1.01209 0.00847153 0)
(1.01176 0.0163665 0)
(1.01314 0.00688425 0)
(1.0132 0.00668593 0)
(1.00998 0.00701866 0)
(1.00734 0.00605751 0)
(0.994185 -0.0132565 0)
(0.996677 0.0108973 0)
(0.995373 -0.00518035 0)
(1.00961 0.0198412 0)
(1.003 -0.0144246 0)
(0.995068 0.0115408 0)
(1.01298 -0.00397503 0)
(0.994965 -0.0154144 0)
(0.974156 -0.000222554 0)
(0.986847 0.00474104 0)
(0.984702 0.013716 0)
(0.992785 0.0247659 0)
(1.00219 0.0101602 0)
(1.00601 0.0265467 0)
(1.0138 0.00917236 0)
(1.0132 0.0152437 0)
(1.0135 0.00791215 0)
(1.01341 0.00637673 0)
(1.0097 0.00777162 0)
(1.0065 0.00600713 0)
(0.995335 -0.0130134 0)
(0.996862 0.0106926 0)
(0.995028 -0.00514556 0)
(1.00961 0.019493 0)
(1.00347 -0.0139213 0)
(0.996044 0.0110081 0)
(1.01222 -0.00360747 0)
(0.995355 -0.0147952 0)
(0.976135 4.092e-06 0)
(0.989101 0.00454571 0)
(0.987568 0.0133632 0)
(0.995622 0.0240911 0)
(1.00415 0.0101947 0)
(1.00798 0.0253491 0)
(1.01431 0.00992141 0)
(1.01343 0.0142516 0)
(1.01286 0.00887081 0)
(1.01291 0.00629891 0)
(1.00901 0.00830186 0)
(1.00569 0.00594813 0)
(0.996468 -0.0127648 0)
(0.996712 0.010491 0)
(0.994972 -0.00509054 0)
(1.0088 0.0191005 0)
(1.00413 -0.013395 0)
(0.99637 0.0104654 0)
(1.01114 -0.0031991 0)
(0.996143 -0.014232 0)
(0.97792 0.000217444 0)
(0.990679 0.00432927 0)
(0.989665 0.0129794 0)
(0.997295 0.0234223 0)
(1.00483 0.0102801 0)
(1.00836 0.024195 0)
(1.0136 0.010682 0)
(1.01271 0.0134 0)
(1.01157 0.00973446 0)
(1.01202 0.00641175 0)
(1.0082 0.00863152 0)
(1.00502 0.00588033 0)
(0.997404 -0.0125067 0)
(0.996413 0.0102881 0)
(0.995099 -0.00500784 0)
(1.00762 0.0186613 0)
(1.00478 -0.0128461 0)
(0.996208 0.00992093 0)
(1.00991 -0.00277461 0)
(0.997133 -0.0137296 0)
(0.9793 0.000450595 0)
(0.991411 0.00411496 0)
(0.990622 0.0125769 0)
(0.997544 0.0227805 0)
(1.00434 0.0104126 0)
(1.00753 0.0230798 0)
(1.0121 0.0114174 0)
(1.01153 0.0126773 0)
(1.01006 0.0104547 0)
(1.01103 0.00664631 0)
(1.00747 0.00876852 0)
(1.00451 0.00580457 0)
(0.99809 -0.0122363 0)
(0.996124 0.0100785 0)
(0.995301 -0.00489499 0)
(1.00647 0.0181771 0)
(1.00528 -0.0122729 0)
(0.995874 0.00937708 0)
(1.00871 -0.00235055 0)
(0.998097 -0.0132796 0)
(0.980312 0.000724101 0)
(0.991595 0.00392886 0)
(0.99074 0.0121648 0)
(0.996822 0.0221736 0)
(1.00324 0.0105693 0)
(1.00619 0.0220099 0)
(1.01033 0.0120845 0)
(1.01033 0.0120492 0)
(1.00867 0.0110231 0)
(1.01014 0.00697001 0)
(1.00693 0.00874325 0)
(1.00414 0.00572208 0)
(0.998555 -0.0119526 0)
(0.995917 0.00985869 0)
(0.995518 -0.00475302 0)
(1.00554 0.0176512 0)
(1.00557 -0.0116709 0)
(0.995606 0.00882618 0)
(1.00765 -0.00192616 0)
(0.99889 -0.0128711 0)
(0.981083 0.00103499 0)
(0.9916 0.00379083 0)
(0.990538 0.0117455 0)
(0.995763 0.0215963 0)
(1.00207 0.0107298 0)
(1.0049 0.0209797 0)
(1.0087 0.0126721 0)
(1.00934 0.0115113 0)
(1.00756 0.0114529 0)
(1.0094 0.00737816 0)
(1.00661 0.00861774 0)
(1.00387 0.00563405 0)
(0.998859 -0.0116558 0)
(0.995797 0.00962638 0)
(0.995734 -0.00458343 0)
(1.00486 0.0170873 0)
(1.00569 -0.0110383 0)
(0.995487 0.00826279 0)
(1.00676 -0.00149493 0)
(0.99947 -0.0125 0)
(0.981718 0.00137302 0)
(0.991644 0.00370464 0)
(0.990395 0.0113122 0)
(0.994799 0.0210533 0)
(1.00112 0.0108617 0)
(1.00395 0.0199797 0)
(1.00737 0.013188 0)
(1.00861 0.0110638 0)
(1.00677 0.0117256 0)
(1.0088 0.00784433 0)
(1.00646 0.00844646 0)
(1.00365 0.00554109 0)
(0.99906 -0.0113455 0)
(0.995739 0.00937976 0)
(0.995952 -0.0043881 0)
(1.00436 0.0164882 0)
(1.00569 -0.0103738 0)
(0.995502 0.00768277 0)
(1.00602 -0.00105031 0)
(0.999867 -0.0121557 0)
(0.982282 0.00172271 0)
(0.99178 0.00367092 0)
(0.990472 0.0108633 0)
(0.994089 0.0205315 0)
(1.00047 0.0109671 0)
(1.00336 0.0190019 0)
(1.00636 0.0136295 0)
(1.00809 0.0106816 0)
(1.00624 0.0118864 0)
(1.0083 0.00835876 0)
(1.00644 0.00826084 0)
(1.00349 0.00544325 0)
(0.999204 -0.0110219 0)
(0.99572 0.00911743 0)
(0.996172 -0.00416825 0)
(1.00398 0.0158549 0)
(1.00562 -0.00967832 0)
(0.995605 0.00708599 0)
(1.00539 -0.000592352 0)
(1.00013 -0.0118236 0)
(0.982814 0.00206711 0)
(0.991977 0.00369464 0)
(0.990776 0.0103901 0)
(0.993619 0.020023 0)
(1.00007 0.01107 0)
(1.00306 0.0180329 0)
(1.00561 0.0140017 0)
(1.00771 0.0103678 0)
(1.00594 0.0119296 0)
(1.00784 0.00890822 0)
(1.0065 0.00809758 0)
(1.00334 0.00534151 0)
(0.999323 -0.0106869 0)
(0.995724 0.00883851 0)
(0.996392 -0.00392458 0)
(1.00365 0.0151901 0)
(1.00551 -0.00895484 0)
(0.99576 0.00647237 0)
(1.00484 -0.000123321 0)
(1.00032 -0.011494 0)
(0.983341 0.00238782 0)
(0.992187 0.00377765 0)
(0.991262 0.00987457 0)
(0.993316 0.0195386 0)
(0.999834 0.0111764 0)
(1.00294 0.0170753 0)
(1.00505 0.0143263 0)
(1.00739 0.0101408 0)
(1.0058 0.0118102 0)
(1.0074 0.00946748 0)
(1.00658 0.00801127 0)
(1.00321 0.00523522 0)
(0.999439 -0.010339 0)
(0.995748 0.00854335 0)
(0.996601 -0.00365767 0)
(1.00336 0.0144972 0)
(1.00536 -0.00820265 0)
(0.995947 0.00584264 0)
(1.00435 0.000354045 0)
(1.00046 -0.0111636 0)
(0.983885 0.0026768 0)
(0.992374 0.00392166 0)
(0.991874 0.00932406 0)
(0.993114 0.019056 0)
(0.99969 0.0112978 0)
(1.00292 0.0161256 0)
(1.00463 0.0146004 0)
(1.00708 0.0100372 0)
(1.00578 0.0115702 0)
(1.00699 0.0100151 0)
(1.00665 0.0080571 0)
(1.00309 0.00512324 0)
(0.999563 -0.00997752 0)
(0.995792 0.00823111 0)
(0.996788 -0.0033659 0)
(1.00308 0.0137753 0)
(1.00518 -0.00742655 0)
(0.996157 0.00520654 0)
(1.0039 0.000833117 0)
(1.00057 -0.010816 0)
(0.984463 0.00292107 0)
(0.992523 0.00412963 0)
(0.992565 0.00875091 0)
(0.992972 0.0185554 0)
(0.999577 0.0114375 0)
(1.00296 0.0151845 0)
(1.0043 0.0148004 0)
(1.00675 0.0100594 0)
(1.00586 0.0112306 0)
(1.00663 0.0104954 0)
(1.00667 0.00825363 0)
(1.00297 0.00500651 0)
(0.9997 -0.00960532 0)
(0.995858 0.00790369 0)
(0.996944 -0.00305055 0)
(1.00283 0.0130258 0)
(1.00495 -0.00663005 0)
(0.99639 0.00456195 0)
(1.00348 0.00131302 0)
(1.00066 -0.0104387 0)
(0.985079 0.00309617 0)
(0.992633 0.00439944 0)
(0.993298 0.00816587 0)
(0.992879 0.018019 0)
(0.999453 0.0116093 0)
(1.00304 0.0142528 0)
(1.00406 0.0149108 0)
(1.0064 0.0101908 0)
(1.00599 0.01082 0)
(1.00635 0.0108447 0)
(1.00662 0.00859427 0)
(1.00285 0.00488359 0)
(0.999848 -0.0092205 0)
(0.995947 0.00756185 0)
(0.997064 -0.00271248 0)
(1.00261 0.0122534 0)
(1.0047 -0.0058233 0)
(0.996642 0.00392309 0)
(1.00306 0.00177187 0)
(1.00074 -0.0100233 0)
(0.985735 0.00321045 0)
(0.992711 0.0047345 0)
(0.994042 0.00758347 0)
(0.992844 0.0174352 0)
(0.999295 0.0118256 0)
(1.00313 0.0133426 0)
(1.00388 0.014894 0)
(1.00602 0.0104327 0)
(1.00615 0.0103991 0)
(1.00616 0.0110165 0)
(1.0065 0.00904536 0)
(1.00271 0.00475466 0)
(1 -0.00882491 0)
(0.996057 0.00720622 0)
(0.997152 -0.00234963 0)
(1.00242 0.0114629 0)
(1.00441 -0.00501393 0)
(0.996909 0.00329723 0)
(1.00265 0.00220475 0)
(1.0008 -0.0095565 0)
(0.986424 0.00324078 0)
(0.99277 0.0051151 0)
(0.994774 0.00703037 0)
(0.992886 0.0167921 0)
(0.999089 0.0120804 0)
(1.00325 0.012492 0)
(1.00377 0.0147338 0)
(1.00563 0.010773 0)
(1.00629 0.0100219 0)
(1.00608 0.0109878 0)
(1.00633 0.00955104 0)
(1.00258 0.00462007 0)
(1.00015 -0.00841945 0)
(0.996186 0.00683826 0)
(0.997214 -0.00196424 0)
(1.00225 0.0106594 0)
(1.00412 -0.00420323 0)
(0.997185 0.00268918 0)
(1.00224 0.0025979 0)
(1.00084 -0.00903864 0)
(0.987141 0.00318055 0)
(0.992826 0.00551743 0)
(0.995473 0.00653849 0)
(0.993022 0.0160786 0)
(0.998837 0.0123489 0)
(1.00337 0.0117419 0)
(1.00373 0.0144247 0)
(1.00523 0.0111569 0)
(1.00637 0.00975209 0)
(1.0061 0.0107647 0)
(1.00614 0.0100211 0)
(1.00244 0.00447811 0)
(1.00029 -0.00800035 0)
(0.99633 0.00645683 0)
(0.997262 -0.00155962 0)
(1.00212 0.00984703 0)
(1.00382 -0.00340589 0)
(0.997462 0.00212181 0)
(1.00183 0.00293569 0)
(1.00087 -0.0084436 0)
(0.987878 0.00305458 0)
(0.99289 0.00593261 0)
(0.996125 0.00610953 0)
(0.993258 0.0152972 0)
(0.99855 0.0126125 0)
(1.00347 0.0111186 0)
(1.00375 0.0139756 0)
(1.00484 0.0115254 0)
(1.00638 0.00963172 0)
(1.00621 0.0104137 0)
(1.00598 0.0103697 0)
(1.0023 0.00433039 0)
(1.00042 -0.00757087 0)
(0.996486 0.00606221 0)
(0.997304 -0.00113872 0)
(1.00201 0.00903358 0)
(1.00353 -0.00262849 0)
(0.997735 0.00160234 0)
(1.00145 0.00321801 0)
(1.00088 -0.00776621 0)
(0.988632 0.00285796 0)
(0.992971 0.00633573 0)
(0.996717 0.00577304 0)
(0.993596 0.0144454 0)
(0.998246 0.0128556 0)
(1.00354 0.0106322 0)
(1.00384 0.0134076 0)
(1.00447 0.0118466 0)
(1.00629 0.00964223 0)
(1.00637 0.0100017 0)
(1.00587 0.0105331 0)
(1.00217 0.00417698 0)
(1.00052 -0.00713138 0)
(0.996651 0.00565725 0)
(0.997348 -0.000708817 0)
(1.00192 0.00822698 0)
(1.00325 -0.0018826 0)
(0.997997 0.00114729 0)
(1.00108 0.00341444 0)
(1.00087 -0.00701628 0)
(0.989399 0.00261489 0)
(0.993079 0.00669799 0)
(0.997244 0.00555693 0)
(0.994024 0.0135415 0)
(0.997947 0.0130439 0)
(1.00355 0.0102884 0)
(1.00398 0.012754 0)
(1.00416 0.0120589 0)
(1.0061 0.00977237 0)
(1.00653 0.00961718 0)
(1.00586 0.0104687 0)
(1.00204 0.00401788 0)
(1.0006 -0.00668119 0)
(0.996824 0.00524294 0)
(0.997396 -0.000275185 0)
(1.00185 0.00743597 0)
(1.00298 -0.00119093 0)
(0.998243 0.000770618 0)
(1.00075 0.00352626 0)
(1.00085 -0.00620758 0)
(0.990175 0.00235151 0)
(0.993216 0.00700129 0)
(0.997702 0.00544112 0)
(0.994528 0.0126255 0)
(0.997676 0.0131485 0)
(1.0035 0.010087 0)
(1.00417 0.012072 0)
(1.00391 0.0121399 0)
(1.00583 0.00997489 0)
(1.00664 0.00933011 0)
(1.00595 0.010212 0)
(1.00191 0.00385313 0)
(1.00066 -0.00621949 0)
(0.997007 0.00481972 0)
(0.997446 0.000161009 0)
(1.00179 0.00667244 0)
(1.00272 -0.000552793 0)
(0.998472 0.000479484 0)
(1.00044 0.00355982 0)
(1.00082 -0.0053626 0)
(0.990958 0.00208379 0)
(0.993386 0.00722002 0)
(0.998093 0.00542903 0)
(0.995089 0.0117223 0)
(0.997456 0.0131502 0)
(1.00337 0.0100073 0)
(1.00438 0.011405 0)
(1.00373 0.0121015 0)
(1.00551 0.010197 0)
(1.00669 0.00914623 0)
(1.0061 0.00984747 0)
(1.0018 0.00368373 0)
(1.00071 -0.0057495 0)
(0.997198 0.0043922 0)
(0.997497 0.000593842 0)
(1.00173 0.00594341 0)
(1.00247 1.45231e-05 0)
(0.998681 0.000284622 0)
(1.00018 0.00351017 0)
(1.00077 -0.00449749 0)
(0.991738 0.00184551 0)
(0.993592 0.00734533 0)
(0.998419 0.00550529 0)
(0.995687 0.0108569 0)
(0.997302 0.0130476 0)
(1.00318 0.0100219 0)
(1.00459 0.0107833 0)
(1.00365 0.0119268 0)
(1.00517 0.010406 0)
(1.00664 0.00907825 0)
(1.0063 0.00948172 0)
(1.00168 0.00351045 0)
(1.00074 -0.00527441 0)
(0.997398 0.00396728 0)
(0.997547 0.00100832 0)
(1.00169 0.00526538 0)
(1.00224 0.000499275 0)
(0.998868 0.000191211 0)
(0.99996 0.00339626 0)
(1.00071 -0.00364326 0)
(0.992509 0.00165754 0)
(0.993836 0.00737838 0)
(0.998684 0.00563754 0)
(0.996305 0.0100527 0)
(0.997227 0.0128371 0)
(1.00294 0.0101023 0)
(1.00478 0.0102372 0)
(1.00365 0.0116346 0)
(1.00483 0.010573 0)
(1.00652 0.00909478 0)
(1.00648 0.00918796 0)
(1.00158 0.0033327 0)
(1.00076 -0.00479562 0)
(0.997609 0.0035484 0)
(0.997594 0.00140059 0)
(1.00165 0.00464532 0)
(1.00203 0.000904328 0)
(0.999033 0.000191653 0)
(0.999777 0.00323403 0)
(1.00065 -0.00281939 0)
(0.993262 0.00153458 0)
(0.994117 0.00732645 0)
(0.998897 0.0058087 0)
(0.996925 0.00932644 0)
(0.997237 0.0125331 0)
(1.00266 0.0102141 0)
(1.00494 0.00978939 0)
(1.00374 0.0112582 0)
(1.00453 0.0106872 0)
(1.00633 0.00914158 0)
(1.00662 0.00897674 0)
(1.00148 0.00315254 0)
(1.00077 -0.00431665 0)
(0.997828 0.00313748 0)
(0.997639 0.00176507 0)
(1.00161 0.00408988 0)
(1.00184 0.00121278 0)
(0.999174 0.000278849 0)
(0.999632 0.00303869 0)
(1.00058 -0.00205362 0)
(0.99399 0.00148601 0)
(0.994435 0.00721106 0)
(0.999063 0.00599982 0)
(0.997533 0.00869157 0)
(0.997334 0.0121429 0)
(1.00235 0.0103275 0)
(1.00505 0.0094447 0)
(1.00389 0.0108113 0)
(1.00428 0.0107432 0)
(1.0061 0.00920439 0)
(1.0067 0.00882621 0)
(1.00138 0.00296946 0)
(1.00077 -0.00384171 0)
(0.998056 0.00274357 0)
(0.997682 0.00209083 0)
(1.00157 0.00360997 0)
(1.00168 0.00142681 0)
(0.999293 0.000440505 0)
(0.99952 0.00284474 0)
(1.00052 -0.00136762 0)
(0.99469 0.00150097 0)
(0.994788 0.00704197 0)
(0.999193 0.0061873 0)
(0.998114 0.00815274 0)
(0.997517 0.0116847 0)
(1.00205 0.0104198 0)
(1.0051 0.0092007 0)
(1.00411 0.0103254 0)
(1.0041 0.0107234 0)
(1.00582 0.00928584 0)
(1.00671 0.00871361 0)
(1.00129 0.00278563 0)
(1.00075 -0.00337361 0)
(0.99829 0.00236904 0)
(0.997724 0.00237427 0)
(1.00152 0.00321191 0)
(1.00154 0.00155518 0)
(0.999394 0.000648469 0)
(0.999436 0.00268473 0)
(1.00047 -0.000758634 0)
(0.995358 0.00156024 0)
(0.995175 0.00683542 0)
(0.999297 0.00634818 0)
(0.998659 0.00771632 0)
(0.99778 0.0111892 0)
(1.00177 0.0104603 0)
(1.00508 0.00905297 0)
(1.00436 0.00983138 0)
(1.00401 0.0105991 0)
(1.00553 0.00938293 0)
(1.00667 0.00862195 0)
(1.00121 0.00259951 0)
(1.00072 -0.00290976 0)
(0.99853 0.00201623 0)
(0.997769 0.00261129 0)
(1.00147 0.00289455 0)
(1.00144 0.00160395 0)
(0.999482 0.00088379 0)
(0.999374 0.00256353 0)
(1.00042 -0.000215304 0)
(0.995993 0.00165659 0)
(0.995591 0.00660373 0)
(0.999387 0.00647926 0)
(0.999163 0.00737102 0)
(0.998111 0.0106723 0)
(1.00153 0.010442 0)
(1.00499 0.00898707 0)
(1.00462 0.00936598 0)
(1.00401 0.0103661 0)
(1.00525 0.00947607 0)
(1.00657 0.00856138 0)
(1.00113 0.00241322 0)
(1.00069 -0.00245457 0)
(0.998771 0.00168555 0)
(0.99782 0.00280017 0)
(1.0014 0.00266293 0)
(1.00136 0.00158556 0)
(0.999565 0.00111947 0)
(0.99933 0.00250046 0)
(1.00039 0.000251527 0)
(0.996593 0.00178519 0)
(0.996032 0.00636261 0)
(0.999474 0.00658196 0)
(0.999619 0.00709231 0)
(0.998497 0.0101511 0)
(1.00134 0.0103479 0)
(1.00483 0.00896155 0)
(1.00486 0.00896562 0)
(1.0041 0.0100445 0)
(1.00499 0.00952165 0)
(1.00641 0.00855653 0)
(1.00106 0.00222813 0)
(1.00064 -0.00200882 0)
(0.999012 0.0013818 0)
(0.99788 0.00293525 0)
(1.00132 0.00251229 0)
(1.0013 0.00152513 0)
(0.99965 0.00132922 0)
(0.999299 0.00249636 0)
(1.00037 0.000658187 0)
(0.997161 0.0019309 0)
(0.996494 0.00612158 0)
(0.999563 0.00664108 0)
(1.00003 0.00688078 0)
(0.998923 0.00963925 0)
(1.00121 0.0101819 0)
(1.00464 0.00895247 0)
(1.00506 0.00863909 0)
(1.00427 0.00965717 0)
(1.00479 0.00947817 0)
(1.0062 0.00860482 0)
(1.001 0.00204328 0)
(1.00058 -0.00157508 0)
(0.999247 0.00111221 0)
(0.997951 0.00300993 0)
(1.00123 0.0024365 0)
(1.00126 0.00144272 0)
(0.999742 0.00149746 0)
(0.999282 0.0025351 0)
(1.00035 0.00103938 0)
(0.997693 0.00209103 0)
(0.99697 0.00588956 0)
(0.999664 0.00666784 0)
(1.00039 0.00672753 0)
(0.999373 0.00915227 0)
(1.00116 0.0099536 0)
(1.00442 0.0089376 0)
(1.0052 0.00837674 0)
(1.0045 0.00924885 0)
(1.00469 0.0093358 0)
(1.00595 0.00866084 0)
(1.00094 0.00186297 0)
(1.00051 -0.00116098 0)
(0.999473 0.000880353 0)
(0.998037 0.00302402 0)
(1.00112 0.00242684 0)
(1.00123 0.0013641 0)
(0.999849 0.00160882 0)
(0.999283 0.002602 0)
(1.00034 0.001398 0)
(0.998188 0.00226708 0)
(0.997455 0.00567536 0)
(0.999779 0.00666279 0)
(1.0007 0.00661339 0)
(0.999831 0.00868922 0)
(1.00117 0.00965899 0)
(1.00419 0.00890217 0)
(1.00528 0.00817328 0)
(1.00474 0.00885551 0)
(1.00467 0.00910411 0)
(1.00572 0.00867316 0)
(1.00089 0.00168799 0)
(1.00043 -0.000774866 0)
(0.999686 0.000697153 0)
(0.998139 0.00297358 0)
(1.001 0.00246484 0)
(1.00121 0.00132253 0)
(0.999969 0.00167789 0)
(0.999305 0.00267045 0)
(1.00033 0.00173884 0)
(0.998646 0.00245534 0)
(0.997942 0.005473 0)
(0.999912 0.00661736 0)
(1.00097 0.00652377 0)
(1.00028 0.00825287 0)
(1.00126 0.0093141 0)
(1.00398 0.00883417 0)
(1.00529 0.00801406 0)
(1.00498 0.00848873 0)
(1.00474 0.00881114 0)
(1.00553 0.00861794 0)
(1.00085 0.00152278 0)
(1.00034 -0.000428667 0)
(0.999882 0.000570976 0)
(0.998259 0.0028625 0)
(1.00088 0.0025368 0)
(1.00118 0.00133473 0)
(1.0001 0.00172603 0)
(0.999352 0.0027353 0)
(1.00033 0.00204699 0)
(0.999064 0.0026467 0)
(0.998424 0.00528285 0)
(1.00006 0.0065399 0)
(1.0012 0.00643752 0)
(1.00071 0.00785834 0)
(1.0014 0.00894075 0)
(1.0038 0.00872375 0)
(1.00526 0.00789525 0)
(1.0052 0.00817044 0)
(1.00487 0.00848449 0)
(1.0054 0.00847884 0)
(1.00081 0.00136946 0)
(1.00025 -0.000126014 0)
(1.00006 0.000502352 0)
(0.998398 0.00271176 0)
(1.00077 0.00261018 0)
(1.00114 0.00140072 0)
(1.00024 0.00175915 0)
(0.999424 0.00279116 0)
(1.00034 0.00232365 0)
(0.999445 0.00283574 0)
(0.998896 0.00511144 0)
(1.00024 0.00643469 0)
(1.0014 0.00635337 0)
(1.00112 0.00750391 0)
(1.00159 0.00854615 0)
(1.00366 0.0085668 0)
(1.00519 0.0077948 0)
(1.00537 0.00790234 0)
(1.00504 0.00815227 0)
(1.00536 0.00827114 0)
(1.00078 0.00122807 0)
(1.00015 0.000134494 0)
(1.00021 0.000486861 0)
(0.998551 0.00253562 0)
(1.00066 0.00266149 0)
(1.0011 0.00151245 0)
(1.00038 0.00179691 0)
(0.999521 0.00283543 0)
(1.00036 0.00257114 0)
(0.999787 0.003014 0)
(0.999351 0.00495692 0)
(1.00043 0.00630393 0)
(1.00156 0.00627765 0)
(1.00149 0.00719555 0)
(1.00183 0.00814291 0)
(1.00357 0.00836661 0)
(1.0051 0.00769243 0)
(1.00549 0.00767774 0)
(1.00522 0.00784315 0)
(1.00538 0.00802871 0)
(1.00075 0.00110065 0)
(1.00006 0.000352075 0)
(1.00034 0.00051256 0)
(0.998714 0.00235277 0)
(1.00058 0.00267937 0)
(1.00105 0.00165092 0)
(1.00051 0.00185838 0)
(0.999639 0.00286975 0)
(1.0004 0.00278361 0)
(1.0001 0.00318477 0)
(0.999785 0.00481886 0)
(1.00064 0.00615869 0)
(1.00172 0.0061995 0)
(1.00181 0.00692859 0)
(1.00209 0.00774637 0)
(1.00354 0.00813014 0)
(1.00501 0.00757815 0)
(1.00557 0.00748093 0)
(1.00539 0.00755405 0)
(1.00544 0.00777078 0)
(1.00072 0.000986472 0)
(0.999977 0.000529153 0)
(1.00045 0.000568966 0)
(0.998884 0.00217979 0)
(1.00052 0.00265597 0)
(1.00101 0.00179702 0)
(1.00064 0.00194207 0)
(0.999775 0.00291227 0)
(1.00046 0.00296784 0)
(1.00037 0.00334537 0)
(1.00019 0.00469754 0)
(1.00087 0.00599971 0)
(1.00185 0.00611031 0)
(1.0021 0.00670091 0)
(1.00236 0.00736959 0)
(1.00357 0.00784862 0)
(1.00492 0.007435 0)
(1.00562 0.00730724 0)
(1.00555 0.00728369 0)
(1.00554 0.00750691 0)
(1.0007 0.000887838 0)
(0.999898 0.000665142 0)
(1.00054 0.000642541 0)
(0.999053 0.00202744 0)
(1.00049 0.00260679 0)
(1.00097 0.0019304 0)
(1.00076 0.00204017 0)
(0.999924 0.00297457 0)
(1.00052 0.00313127 0)
(1.00062 0.00348675 0)
(1.00058 0.00458562 0)
(1.00111 0.00582596 0)
(1.00199 0.0060112 0)
(1.00234 0.00651125 0)
(1.00263 0.00702996 0)
(1.00364 0.00754343 0)
(1.00486 0.00725898 0)
(1.00563 0.00715229 0)
(1.00568 0.00704084 0)
(1.00565 0.00724007 0)
(1.00069 0.000799102 0)
(0.999828 0.000773473 0)
(1.00061 0.000718007 0)
(0.999221 0.00190586 0)
(1.00048 0.00255157 0)
(1.00094 0.0020345 0)
(1.00088 0.00214311 0)
(1.00009 0.003043 0)
(1.0006 0.00328069 0)
(1.00083 0.00361365 0)
(1.00093 0.00449184 0)
(1.00136 0.00565073 0)
(1.00214 0.00589511 0)
(1.00256 0.00634173 0)
(1.00288 0.00672552 0)
(1.00375 0.00723297 0)
(1.00484 0.00704248 0)
(1.00563 0.00698399 0)
(1.00578 0.00682377 0)
(1.00578 0.00697244 0)
(1.00067 0.000727824 0)
(0.999767 0.000857483 0)
(1.00067 0.000783347 0)
(0.999386 0.00179927 0)
(1.0005 0.0024839 0)
(1.00093 0.00211941 0)
(1.001 0.00223708 0)
(1.00026 0.00311685 0)
(1.00069 0.00341217 0)
(1.00102 0.00372937 0)
(1.00125 0.00440921 0)
(1.00163 0.00547044 0)
(1.00229 0.00576671 0)
(1.00274 0.00619197 0)
(1.00311 0.00645853 0)
(1.00388 0.00693385 0)
(1.00486 0.00680299 0)
(1.00564 0.00678642 0)
(1.00586 0.0066238 0)
(1.00589 0.00672383 0)
(1.00066 0.000644667 0)
(0.999712 0.00092426 0)
(1.00072 0.00086525 0)
(0.999547 0.00173969 0)
(1.00053 0.00243376 0)
(1.00094 0.00218982 0)
(1.00113 0.00230518 0)
(1.00044 0.0031789 0)
(1.00079 0.00351843 0)
(1.00119 0.00382638 0)
(1.00154 0.00432746 0)
(1.00189 0.00528083 0)
(1.00247 0.00561115 0)
(1.00292 0.006043 0)
(1.00332 0.00621864 0)
(1.00402 0.00664838 0)
(1.0049 0.0065603 0)
(1.00567 0.00657131 0)
(1.00593 0.00641619 0)
(1.00598 0.00650362 0)
(1.00065 0.000606073 0)
(0.999675 0.000945094 0)
(1.00077 0.000885904 0)
(0.999703 0.00169145 0)
(1.00058 0.00242284 0)
(1.00095 0.0022806 0)
(1.00127 0.00236572 0)
(1.00064 0.00322052 0)
(1.0009 0.00361094 0)
(1.00133 0.00391961 0)
(1.0018 0.0042701 0)
(1.00216 0.00510572 0)
(1.00267 0.00543735 0)
(1.00309 0.00589185 0)
(1.00351 0.00601488 0)
(1.00416 0.00638805 0)
(1.00496 0.00631829 0)
(1.0057 0.00635249 0)
(1.00601 0.00618209 0)
(1.00607 0.00629017 0)
(1.00065 0.000553732 0)
(0.99963 0.000993451 0)
(1.00082 0.000950224 0)
(0.999879 0.00166754 0)
(1.00066 0.00240911 0)
(1.00098 0.00235404 0)
(1.00141 0.00239172 0)
(1.00085 0.00320556 0)
(1.00103 0.0036597 0)
(1.00146 0.00399436 0)
(1.00203 0.00421529 0)
(1.00242 0.00493137 0)
(1.00288 0.00524186 0)
(1.00327 0.00571072 0)
(1.00369 0.00582045 0)
(1.0043 0.00614824 0)
(1.00503 0.00607394 0)
(1.00574 0.00613693 0)
(1.0061 0.00593896 0)
(1.00616 0.00605575 0)
(1.00064 0.000496803 0)
(0.99961 0.00107184 0)
(1.00085 0.00106367 0)
(1.00003 0.00164285 0)
(1.00074 0.002362 0)
(1.001 0.00240216 0)
(1.00153 0.00239392 0)
(1.00108 0.00314178 0)
(1.00118 0.00365573 0)
(1.00158 0.00405121 0)
(1.00221 0.00417684 0)
(1.00265 0.00477107 0)
(1.0031 0.00504067 0)
(1.00346 0.00551196 0)
(1.00387 0.00561745 0)
(1.00444 0.00592437 0)
(1.00512 0.00583995 0)
(1.00578 0.00592553 0)
(1.00617 0.00571805 0)
(1.00626 0.00580437 0)
(1.00064 0.000482527 0)
(0.999586 0.0011049 0)
(1.00087 0.00113077 0)
(1.00018 0.00160587 0)
(1.00083 0.00230891 0)
(1.00103 0.00247309 0)
(1.00164 0.00242585 0)
(1.0013 0.00308367 0)
(1.00136 0.00362919 0)
(1.00171 0.00409972 0)
(1.00237 0.00416728 0)
(1.00285 0.00463795 0)
(1.00331 0.00484647 0)
(1.00366 0.00530538 0)
(1.00404 0.00540076 0)
(1.00457 0.0057012 0)
(1.0052 0.00561192 0)
(1.00582 0.00570307 0)
(1.00623 0.00551041 0)
(1.00636 0.00555152 0)
(1.00063 0.000449625 0)
(0.999576 0.00113922 0)
(1.00088 0.00122434 0)
(1.00031 0.00160864 0)
(1.00094 0.00225554 0)
(1.00106 0.0025242 0)
(1.00172 0.00246497 0)
(1.00151 0.00301205 0)
(1.00156 0.00354299 0)
(1.00183 0.00409498 0)
(1.00249 0.00414606 0)
(1.00302 0.00452371 0)
(1.00352 0.0046533 0)
(1.00385 0.00508499 0)
(1.00423 0.00517296 0)
(1.0047 0.00546948 0)
(1.00529 0.00538588 0)
(1.00588 0.0054739 0)
(1.00627 0.00530367 0)
(1.00644 0.00531821 0)
(1.00063 0.000431041 0)
(0.99957 0.00116686 0)
(1.00089 0.00129805 0)
(1.00042 0.00160885 0)
(1.00105 0.00218553 0)
(1.0011 0.00255442 0)
(1.00179 0.00252243 0)
(1.0017 0.00296871 0)
(1.00178 0.00343597 0)
(1.00198 0.0040497 0)
(1.0026 0.00411526 0)
(1.00315 0.00443604 0)
(1.00369 0.00448332 0)
(1.00404 0.00486355 0)
(1.00441 0.0049377 0)
(1.00484 0.00522785 0)
(1.00538 0.00515919 0)
(1.00594 0.0052399 0)
(1.00632 0.00508498 0)
(1.00649 0.0051002 0)
(1.00062 0.000420015 0)
(0.999572 0.00117581 0)
(1.00089 0.00135708 0)
(1.00051 0.00162778 0)
(1.00116 0.00212218 0)
(1.00116 0.00255745 0)
(1.00184 0.00257148 0)
(1.00186 0.00293753 0)
(1.00199 0.00331839 0)
(1.00214 0.00395625 0)
(1.0027 0.00405899 0)
(1.00325 0.00434784 0)
(1.00383 0.00433831 0)
(1.00421 0.00465302 0)
(1.00459 0.00469687 0)
(1.00499 0.00497423 0)
(1.00548 0.004926 0)
(1.00599 0.0050035 0)
(1.00637 0.00485101 0)
(1.00653 0.00488092 0)