/*--------------------------------*- C++ -*----------------------------------*\
| =========                 |                                                 |
| \\      /  F ield         | OpenFOAM: The Open Source CFD Toolbox           |
|  \\    /   O peration     | Version:  2506                                  |
|   \\  /    A nd           | Website:  www.openfoam.com                      |
|    \\/     M anipulation  |                                                 |
\*---------------------------------------------------------------------------*/
FoamFile
{
    version     2.0;
    format      ascii;
    arch        "LSB;label=32;scalar=64";
    class       volScalarField;
    location    "1.25";
    object      p;
}
// * * * * * * * * * * * * * * * * * * * * * * * * * * * * * * * * * * * * * //

dimensions      [0 2 -2 0 0 0 0];

internalField   nonuniform List<scalar> 
9600
(
-3.77968e-11
0.00119874
0.00149194
0.00153069
0.00232127
0.00168511
0.00122423
0.00159184
0.000812261
0.00161292
0.00243276
0.00357694
0.00355971
0.00372498
0.00506001
0.00618121
0.00782686
0.00881793
0.0120134
0.0172822
5.48091e-07
0.00119799
0.00149416
0.00153123
0.00231678
0.00167612
0.0012402
0.00158807
0.000819677
0.00161698
0.00242151
0.00357544
0.00355701
0.00372264
0.00506361
0.00616276
0.00784185
0.00878088
0.0121921
0.0168297
1.50654e-06
0.00119721
0.00149699
0.00153072
0.00230942
0.00166579
0.00125601
0.00158219
0.000832181
0.00161986
0.00241482
0.00357151
0.00355287
0.00372268
0.00505995
0.0061406
0.00784678
0.00873781
0.0122593
0.016222
2.97739e-06
0.00119668
0.00149974
0.00152905
0.00230135
0.00165444
0.00126725
0.0015758
0.000849622
0.00162309
0.00240589
0.00356368
0.00354806
0.00372281
0.00505313
0.0061149
0.00785038
0.00869036
0.0122675
0.0157147
5.14684e-06
0.00119628
0.00150248
0.00152619
0.00229256
0.00164168
0.00127589
0.00156946
0.000872089
0.00162558
0.00239589
0.00355223
0.00354281
0.00372152
0.00504688
0.0060868
0.00785549
0.00863733
0.0122475
0.0152618
8.02156e-06
0.00119587
0.00150528
0.00152231
0.00228325
0.0016282
0.00128313
0.00156305
0.000898458
0.00162674
0.00238467
0.00353855
0.00353754
0.00371893
0.00504199
0.00605728
0.00785825
0.0085809
0.0121956
0.0148395
1.14583e-05
0.00119533
0.00150809
0.00151782
0.00227392
0.00161431
0.00128932
0.00155644
0.000927734
0.00162719
0.0023727
0.00352399
0.00353244
0.00371479
0.0050383
0.0060263
0.00785599
0.00852301
0.0121068
0.0144401
1.52738e-05
0.00119457
0.00151092
0.00151315
0.00226477
0.0016
0.00129488
0.0015495
0.000959301
0.0016276
0.00236036
0.00350928
0.00352736
0.00370865
0.00503489
0.00599411
0.00784682
0.00846416
0.0119795
0.0140598
1.93315e-05
0.00119356
0.00151383
0.00150849
0.00225569
0.00158527
0.00130021
0.00154203
0.000992658
0.0016283
0.00234781
0.00349462
0.00352216
0.00370018
0.00503056
0.00596143
0.00782884
0.00840446
0.0118146
0.0136951
2.35642e-05
0.00119234
0.00151685
0.00150384
0.00224655
0.00157017
0.00130561
0.0015339
0.00102728
0.0016294
0.00233503
0.00347996
0.00351675
0.0036894
0.00502443
0.00592898
0.00780005
0.00834371
0.0116143
0.0133413
2.79552e-05
0.0011909
0.00152
0.00149916
0.00223718
0.00155476
0.00131125
0.00152503
0.00106267
0.00163099
0.00232184
0.0034652
0.0035109
0.00367656
0.00501574
0.00589717
0.0077587
0.00828133
0.0113823
0.0129924
3.25154e-05
0.00118925
0.00152328
0.00149442
0.0022275
0.0015391
0.00131727
0.00151542
0.00109841
0.00163313
0.00230804
0.00345026
0.0035042
0.00366207
0.00500368
0.00586629
0.00770374
0.00821591
0.0111224
0.0126426
3.72703e-05
0.00118736
0.00152669
0.00148956
0.00221741
0.00152318
0.0013237
0.00150511
0.00113415
0.00163593
0.00229337
0.00343509
0.00349625
0.00364639
0.00498749
0.00583634
0.00763493
0.00814517
0.0108349
0.0122874
4.22552e-05
0.00118519
0.00153022
0.00148458
0.00220687
0.00150701
0.0013305
0.00149419
0.00116954
0.00163959
0.00227753
0.00341976
0.00348667
0.00362979
0.0049666
0.00580685
0.00755284
0.00806599
0.010526
0.011924
4.75117e-05
0.00118269
0.00153389
0.00147948
0.00219583
0.00149057
0.00133763
0.0014828
0.00120427
0.00164433
0.00226014
0.00340447
0.00347508
0.00361241
0.00494076
0.00577671
0.00745868
0.00797523
0.0102086
0.0115521
5.30881e-05
0.0011798
0.00153768
0.00147425
0.00218428
0.00147384
0.00134498
0.00147113
0.00123796
0.00165044
0.00224088
0.00338932
0.00346123
0.00359423
0.00491007
0.00574391
0.00735372
0.00787075
0.00988191
0.011172
5.90415e-05
0.00117642
0.00154161
0.0014689
0.00217221
0.00145685
0.00135241
0.00145946
0.00127016
0.00165826
0.00221945
0.00337435
0.00344497
0.00357485
0.00487507
0.0057061
0.00723898
0.00775114
0.00954656
0.0107847
6.5441e-05
0.00117246
0.00154566
0.00146342
0.0021596
0.00143965
0.00135977
0.00144807
0.00130042
0.0016681
0.00219557
0.00335957
0.00342637
0.00355314
0.00483676
0.00566105
0.00711463
0.00761661
0.00920331
0.0103905
7.23638e-05
0.00116781
0.00154982
0.00145781
0.00214642
0.00142232
0.00136682
0.00143723
0.00132823
0.0016803
0.00216916
0.00334466
0.00340577
0.00352796
0.00479627
0.00560704
0.00697967
0.00746877
0.00885346
0.00998997
7.98915e-05
0.00116235
0.0015541
0.00145211
0.00213267
0.00140501
0.0013733
0.00142728
0.00135303
0.00169505
0.00214033
0.00332903
0.00338391
0.00349798
0.00475417
0.00554282
0.00683247
0.0073096
0.00849871
0.00958245
8.81194e-05
0.00115593
0.00155845
0.00144634
0.00211829
0.00138789
0.00137888
0.00141864
0.00137434
0.00171244
0.00210926
0.00331186
0.00336192
0.00346132
0.00470985
0.00546553
0.00667133
0.00714023
0.0081417
0.0091668
9.71588e-05
0.00114844
0.00156287
0.00144054
0.0021032
0.00137119
0.00138317
0.00141168
0.00139174
0.00173236
0.00207649
0.00329187
0.00334082
0.00341671
0.00466221
0.00538435
0.00649444
0.00696396
0.00778678
0.00874183
0.000107132
0.00113964
0.00156728
0.00143479
0.0020873
0.00135519
0.00138575
0.00140675
0.00140491
0.00175446
0.00204285
0.00326752
0.00332148
0.00336365
0.00460967
0.00530032
0.00630054
0.00677761
0.00743883
0.00830745
0.000118175
0.00112941
0.0015716
0.0014292
0.00207043
0.00134024
0.00138616
0.00140406
0.00141372
0.00177814
0.00200943
0.0032372
0.00330469
0.00330214
0.00454963
0.00521383
0.00608993
0.00657797
0.00710195
0.00786582
0.00013043
0.00111758
0.00157571
0.0014239
0.00205239
0.00132678
0.00138402
0.00140361
0.00141831
0.00180246
0.00197775
0.00319958
0.00329022
0.00323265
0.00447899
0.00512612
0.00586505
0.00636179
0.00677879
0.00742168
0.000144045
0.00110401
0.00157944
0.00141904
0.00203295
0.00131525
0.00137901
0.00140528
0.00141911
0.00182622
0.00194921
0.00315375
0.00327714
0.00315652
0.00439451
0.00503745
0.00563017
0.00612607
0.00647
0.00698167
0.000159171
0.00108859
0.00158256
0.00141484
0.00201182
0.00130598
0.00137094
0.00140873
0.00141679
0.00184804
0.00192461
0.00309893
0.0032643
0.00307573
0.00429333
0.00494735
0.00539023
0.0058683
0.00617361
0.00655366
0.000175967
0.00107121
0.00158476
0.00141159
0.00198868
0.00129923
0.00135986
0.00141341
0.00141216
0.00186656
0.00190433
0.00303505
0.00324976
0.00299207
0.00417365
0.0048541
0.00515072
0.00558795
0.0058852
0.00614586
0.00019458
0.00105184
0.00158563
0.00140961
0.00196331
0.00129513
0.00134595
0.00141873
0.00140613
0.00188042
0.00188842
0.00296255
0.00323104
0.00290736
0.00403468
0.00475461
0.00491751
0.00528668
0.00559772
0.00576541
0.000215147
0.00103056
0.00158468
0.00140912
0.00193556
0.00129368
0.00132972
0.00142383
0.00139964
0.0018886
0.00187619
0.00288226
0.00320558
0.0028233
0.0038766
0.00464504
0.00469559
0.00496868
0.00530177
0.00541543
0.000237788
0.00100753
0.00158127
0.00141029
0.00190546
0.00129463
0.00131204
0.0014276
0.00139323
0.00189058
0.00186651
0.00279522
0.00317102
0.0027409
0.00370105
0.00452173
0.00448773
0.00464062
0.00498808
0.0050926
0.000262591
0.000983031
0.00157469
0.0014132
0.00187323
0.00129773
0.00129375
0.00142903
0.00138709
0.00188597
0.001858
0.00270228
0.00312527
0.00266089
0.00351124
0.00438115
0.00429355
0.0043113
0.00465217
0.00478683
0.000289602
0.000957445
0.00156423
0.00141776
0.00183932
0.00130248
0.00127544
0.0014274
0.00138124
0.00187441
0.00184919
0.00260449
0.00306637
0.00258365
0.00331125
0.00421988
0.00411042
0.0039902
0.00429604
0.00448268
0.000318794
0.000931245
0.00154925
0.00142371
0.00180431
0.00130812
0.00125803
0.00142228
0.00137528
0.00185589
0.00183816
0.00250269
0.00299353
0.00250919
0.00310513
0.0040362
0.00393409
0.00368377
0.00392606
0.00416613
0.000350089
0.000904954
0.00152922
0.00143058
0.00176872
0.00131398
0.00124225
0.00141348
0.00136851
0.00183043
0.001823
0.00239744
0.00290697
0.00243712
0.00289677
0.00382996
0.00375914
0.00339473
0.00355035
0.00383082
0.000383341
0.000879104
0.00150387
0.00143776
0.00173299
0.00131953
0.00122844
0.00140091
0.00136019
0.00179803
0.00180238
0.00228954
0.00280686
0.00236608
0.00268982
0.00360193
0.00358047
0.00312385
0.00317664
0.00347744
0.000418332
0.000854249
0.00147312
0.00144459
0.00169738
0.00132425
0.00121701
0.00138435
0.0013493
0.00175907
0.00177544
0.0021797
0.00269356
0.00229419
0.0024876
0.00335392
0.00339296
0.00287093
0.00281165
0.00311052
0.000454774
0.00083095
0.00143717
0.00145043
0.00166196
0.00132738
0.00120843
0.00136357
0.00133449
0.00171435
0.00174205
0.0020685
0.00256753
0.00221893
0.00229306
0.00308915
0.00319145
0.00263412
0.0024606
0.00273551
0.000492256
0.000809751
0.00139646
0.00145449
0.00162684
0.00132797
0.00120263
0.0013387
0.00131407
0.00166463
0.00170323
0.00195686
0.00242922
0.00213687
0.00210819
0.00281248
0.00297188
0.00240961
0.00212746
0.00235729
0.00053036
0.000791194
0.00135154
0.00145599
0.00159212
0.00132491
0.00119927
0.00131051
0.00128642
0.00160996
0.00166038
0.00184594
0.00227943
0.00204452
0.0019336
0.00252955
0.00273205
0.00219234
0.00181581
0.00198098
0.000568601
0.00077584
0.00130309
0.00145418
0.00155804
0.00131683
0.00119725
0.00128036
0.00125111
0.00154993
0.00161385
0.00173701
0.00211946
0.00193853
0.00176796
0.00224701
0.00247295
0.00197594
0.00152722
0.0016131
0.000606434
0.000764218
0.00125187
0.00144872
0.00152521
0.00130215
0.00119426
0.00124989
0.00120908
0.00148316
0.00156297
0.00163144
0.00195158
0.00181648
0.00160803
0.00197061
0.00219885
0.00175401
0.00125954
0.00126158
0.000643247
0.000756758
0.00119888
0.00143814
0.00149429
0.00128006
0.0011872
0.00122064
0.00116177
0.00140819
0.00150593
0.00153014
0.00177924
0.00167774
0.00144953
0.00170252
0.00191511
0.00152343
0.00100754
0.000932407
0.000678394
0.000753773
0.00114522
0.00142157
0.00146576
0.00125008
0.00117229
0.00119337
0.00111027
0.00132472
0.00143997
0.00143282
0.00160651
0.00152285
0.00128821
0.00144257
0.00162617
0.00128491
0.000765785
0.000626716
0.000711293
0.00075546
0.00109193
0.00139814
0.00143981
0.00121317
0.00114644
0.00116671
0.00106173
0.00123377
0.00136237
0.00133793
0.00143755
0.00135422
0.00112059
0.00119041
0.00133477
0.00103965
0.000531318
0.000342462
0.000741351
0.000761809
0.00104021
0.0013666
0.00141617
0.0011717
0.00110737
0.00113755
0.00101801
0.00113842
0.00127141
0.00124166
0.00127482
0.00117685
0.000945222
0.000944906
0.00104293
0.00078714
0.000302142
7.74062e-05
0.000768149
0.000772459
0.000991491
0.00132565
0.00139354
0.00112979
0.00105411
0.00110071
0.000978538
0.00104367
0.0011675
0.00113889
0.0011179
0.000996346
0.000763181
0.000704256
0.000752792
0.000526971
7.49823e-05
-0.000170556
0.000791381
0.000786632
0.000947154
0.00127471
0.00136946
0.00109052
0.000987713
0.00105147
0.000942541
0.000953989
0.0010525
0.00102545
0.000964916
0.000816359
0.000576576
0.000467616
0.00046616
0.000260713
-0.00015409
-0.000405716
0.000811015
0.000803283
0.0009082
0.00121032
0.00134064
0.00105663
0.000911893
0.000985928
0.000906237
0.00087257
0.000930983
0.000899438
0.000811654
0.000637631
0.00038826
0.000236033
0.000184492
-9.21383e-06
-0.00038698
-0.000634036
0.000827119
0.000821063
0.000875707
0.00114182
0.001303
0.00102967
0.000833147
0.00090215
0.000861825
0.000799629
0.000809791
0.000762056
0.000653297
0.000459392
0.000200088
1.13266e-05
-8.9756e-05
-0.000281079
-0.000623041
-0.000859581
0.000839869
0.000838394
0.00085054
0.001067
0.00125248
0.00100751
0.000758008
0.00080066
0.000801665
0.000733278
0.000695138
0.000616733
0.000486913
0.000279304
1.16701e-05
-0.00020573
-0.000352954
-0.000552334
-0.000861721
-0.00108285
0.000849563
0.000853706
0.000832685
0.00098875
0.00118602
0.000986121
0.000692392
0.000684866
0.000719444
0.000667942
0.000590672
0.000470599
0.000313418
9.38392e-05
-0.000178312
-0.000417177
-0.000602463
-0.000817699
-0.00110303
-0.00130391
0.000856468
0.000865696
0.000821358
0.000911262
0.00110269
0.000958697
0.000639368
0.00056453
0.000612708
0.000593426
0.000495644
0.000331536
0.000136776
-9.85244e-05
-0.0003723
-0.000625638
-0.000839794
-0.00107156
-0.00134348
-0.00152411
0.000861182
0.000873293
0.000814344
0.0008383
0.00100372
0.000917353
0.000598312
0.000451501
0.00048371
0.000498892
0.00040625
0.000204307
-3.64573e-05
-0.000295365
-0.000572927
-0.000833762
-0.00106885
-0.00131253
-0.00157632
-0.00174282
0.000864068
0.000875881
0.000808603
0.000772112
0.000893134
0.000857081
0.000564502
0.000352515
0.00033977
0.000378418
0.000312228
8.9106e-05
-0.000198787
-0.000491646
-0.000779446
-0.00104439
-0.00129238
-0.00154387
-0.00179815
-0.00195575
0.000865232
0.000873236
0.000800783
0.000713562
0.000777605
0.00077607
0.000528186
0.000269831
0.000194522
0.000233666
0.000200558
-1.82831e-05
-0.00034532
-0.000680098
-0.00098739
-0.00125899
-0.00151312
-0.00176882
-0.00201061
-0.00215785
0.000864603
0.000865305
0.000788048
0.000662202
0.000663474
0.000675196
0.00048004
0.0002021
5.94927e-05
7.00766e-05
6.42348e-05
-0.000128877
-0.000476801
-0.000853249
-0.00119094
-0.00147537
-0.00173336
-0.00198972
-0.00221775
-0.00234849
0.000861753
0.000852172
0.000768983
0.000616598
0.000554695
0.000558241
0.000414648
0.000142667
-5.99226e-05
-0.000100057
-9.5956e-05
-0.000254833
-0.000598846
-0.00100737
-0.00138169
-0.00168845
-0.00195273
-0.00220779
-0.0024231
-0.00253178
0.000856111
0.00083422
0.000742777
0.000574521
0.000453911
0.000431033
0.000329296
8.18941e-05
-0.00016395
-0.000263344
-0.000274614
-0.000402503
-0.00072323
-0.00114586
-0.00155287
-0.00189117
-0.00216798
-0.00242273
-0.00262819
-0.00271326
0.000847062
0.000812022
0.000709085
0.000530472
0.000362226
0.000300479
0.000224325
1.13685e-05
-0.000255496
-0.000412811
-0.000460011
-0.000570421
-0.000859364
-0.00127571
-0.00170452
-0.00207561
-0.00237377
-0.0026316
-0.00283195
-0.00289682
0.000833973
0.000785464
0.000667979
0.000482851
0.000279411
0.000172492
0.000102461
-7.45769e-05
-0.000341242
-0.00054704
-0.000640543
-0.000753077
-0.00101159
-0.00140673
-0.0018416
-0.00223858
-0.00256299
-0.00282947
-0.00302968
-0.00308225
0.000816191
0.000756429
0.000620507
0.000429477
0.000202758
5.05705e-05
-3.0707e-05
-0.000177955
-0.000429437
-0.000667284
-0.000809109
-0.000940201
-0.00117775
-0.00154521
-0.00197121
-0.0023832
-0.0027314
-0.00301104
-0.003215
-0.0032645
0.000793139
0.000723795
0.000568154
0.000368907
0.000128341
-6.37623e-05
-0.00016876
-0.000297563
-0.000526889
-0.000777644
-0.000962334
-0.00112195
-0.00135208
-0.00169301
-0.0020994
-0.00251379
-0.00288
-0.00317306
-0.00338241
-0.00343534
0.000764354
0.000687269
0.000512354
0.000301174
5.19241e-05
-0.000171232
-0.000305886
-0.000430329
-0.000636856
-0.000885658
-0.00110131
-0.00129162
-0.00152569
-0.0018468
-0.00222989
-0.00263527
-0.00301112
-0.00331534
-0.00352913
-0.00358815
0.000729558
0.000646287
0.000454003
0.000227159
-2.93035e-05
-0.000274019
-0.000438949
-0.000571598
-0.000759614
-0.000996881
-0.00122912
-0.00144614
-0.0016903
-0.00200023
-0.00236205
-0.00275041
-0.00312668
-0.00343897
-0.00365539
-0.00371941
0.000688687
0.000600306
0.000393242
0.000148144
-0.000116568
-0.000375471
-0.000567337
-0.000715975
-0.000893415
-0.0011148
-0.00135083
-0.0015864
-0.0018406
-0.00214448
-0.00249008
-0.00285931
-0.0032271
-0.00354287
-0.00376079
-0.00382762
0.000641916
0.000548744
0.0003297
6.58754e-05
-0.000210056
-0.000479428
-0.000692737
-0.000859215
-0.00103447
-0.00124076
-0.00147105
-0.00171459
-0.00197512
-0.0022736
-0.0026064
-0.00295774
-0.00331046
-0.00362392
-0.00384253
-0.00391056
0.000589593
0.000491409
0.000262491
-1.87429e-05
-0.000308805
-0.000587961
-0.000817902
-0.00100172
-0.00117931
-0.00137341
-0.00159218
-0.00183346
-0.00209394
-0.00238446
-0.00270362
-0.0030389
-0.00337389
-0.00367842
-0.003896
-0.00396434
0.000531848
0.000428645
0.000191297
-0.000105791
-0.00041249
-0.000701999
-0.000944823
-0.00114472
-0.00132712
-0.00151168
-0.00171595
-0.0019458
-0.00219718
-0.00247488
-0.00277646
-0.00309269
-0.00340801
-0.0036977
-0.00391104
-0.00398046
0.000468863
0.00036063
0.000115644
-0.000195146
-0.000519881
-0.000822568
-0.00107648
-0.00128966
-0.00147762
-0.00165521
-0.00184445
-0.00205532
-0.00228678
-0.0025432
-0.00282035
-0.00310932
-0.00339738
-0.00366501
-0.00386801
-0.00393891
0.000401194
0.000288029
3.51978e-05
-0.000288143
-0.000629864
-0.000947844
-0.00121487
-0.0014405
-0.00163382
-0.00180613
-0.00198104
-0.00216712
-0.00236611
-0.00258712
-0.00282734
-0.00307866
-0.00332718
-0.00355953
-0.00373905
-0.00380258
0.000329222
0.000211388
-4.99635e-05
-0.000385565
-0.000743348
-0.00107721
-0.00135918
-0.00159869
-0.0018005
-0.00197102
-0.00213423
-0.00229378
-0.00244726
-0.00261053
-0.002787
-0.00297484
-0.00316878
-0.00335705
-0.00350623
-0.00355372
0.000255838
0.000130508
-0.000140628
-0.000487542
-0.000859875
-0.00121014
-0.00151021
-0.00176528
-0.00197819
-0.00215469
-0.00231164
-0.00245524
-0.00257257
-0.00265859
-0.00271347
-0.00274442
-0.00277126
-0.00283051
-0.00294025
-0.00306019
0.000181849
4.63221e-05
-0.000235843
-0.000594503
-0.000980192
-0.0013464
-0.00166647
-0.00194152
-0.0021699
-0.00235979
-0.00251795
-0.00265134
-0.0027668
-0.00285684
-0.0028892
-0.00280432
-0.00251534
-0.00202101
-0.00148711
-0.001105
0.000103045
-3.80291e-05
-0.000330068
-0.000703243
-0.00110466
-0.00149044
-0.0018293
-0.00212487
-0.00237445
-0.00258756
-0.00276203
-0.00286967
-0.00288923
-0.00278152
-0.00247585
-0.00196759
-0.00138211
-0.000879564
-0.000593224
-0.000584901
2.02448e-05
-0.000122337
-0.0004208
-0.000807802
-0.00123167
-0.00164575
-0.00201192
-0.00232017
-0.00256923
-0.00275975
-0.00288842
-0.00290608
-0.0027178
-0.00234296
-0.00189033
-0.00145995
-0.00111457
-0.00086777
-0.000730003
-0.000761334
-6.01606e-05
-0.000209612
-0.000511912
-0.000904922
-0.00134211
-0.00178751
-0.00221641
-0.00259348
-0.0028674
-0.00296878
-0.00284258
-0.00254603
-0.00216363
-0.00178408
-0.00143765
-0.00111958
-0.000843424
-0.000634213
-0.000540784
-0.000627057
-0.000134368
-0.000293169
-0.000610852
-0.00101987
-0.00145676
-0.00186462
-0.00221365
-0.00247461
-0.00264152
-0.00273496
-0.00277554
-0.00279152
-0.00273611
-0.00254031
-0.0021624
-0.00160074
-0.000984711
-0.000486873
-0.000232843
-0.000280838
-0.000201184
-0.00035924
-0.000673965
-0.0010883
-0.00155891
-0.00204295
-0.00247839
-0.00278411
-0.00289048
-0.00280138
-0.00256301
-0.00225516
-0.00192443
-0.00159111
-0.00128083
-0.00100564
-0.000781228
-0.000631394
-0.000587059
-0.000715422
-0.000261484
-0.000435843
-0.000761632
-0.00117858
-0.00163145
-0.00207019
-0.00245745
-0.00273709
-0.00286462
-0.00282923
-0.0026242
-0.00231998
-0.00201454
-0.00174073
-0.00149635
-0.0012719
-0.00106564
-0.00089949
-0.000821962
-0.000909349
0.025804
0.0173188
0.00695302
-0.00054879
-0.00347253
-0.00330306
-0.00263327
-0.00264307
-0.00318663
-0.00364793
-0.00383034
-0.00396882
-0.00412214
-0.00423253
-0.00446693
-0.00486342
-0.00518091
-0.00537062
-0.00559865
-0.00589585
-0.00619856
-0.00648328
-0.00674476
-0.00699284
-0.00725933
-0.00756329
-0.00789154
-0.00821206
-0.00850601
-0.00879368
-0.00909733
-0.00940336
-0.00968931
-0.00996829
-0.0102563
-0.0105434
-0.0108275
-0.0111212
-0.0114246
-0.0117273
-0.0120384
-0.012363
-0.0126974
-0.0130336
-0.0133666
-0.0137041
-0.0140554
-0.0144117
-0.0147526
-0.0150976
-0.0154652
-0.0158412
-0.0162086
-0.0165799
-0.0169687
-0.0173584
-0.0177554
-0.0181553
-0.0185587
-0.0189769
-0.0194124
-0.0198622
-0.0203125
-0.0207685
-0.0212231
-0.0216826
-0.0221488
-0.0226162
-0.023111
-0.0236169
-0.0241278
-0.0246444
-0.0251598
-0.025693
-0.0262298
-0.0267783
-0.0273404
-0.0278977
-0.0284819
-0.0290583
-0.0296463
-0.0302578
-0.0308404
-0.0314545
-0.0320946
-0.0327048
-0.0333573
-0.0340202
-0.034655
-0.0353363
-0.0360349
-0.0366916
-0.0373923
-0.0381277
-0.0388201
-0.0395277
-0.0402857
-0.0410142
-0.0416925
-0.0423959
0.0243228
0.0171278
0.00703438
-0.000414503
-0.00338224
-0.00325634
-0.00260369
-0.00262344
-0.00317387
-0.00363897
-0.0038231
-0.00396267
-0.00411681
-0.00422727
-0.00446175
-0.00485901
-0.00517715
-0.00536704
-0.00559525
-0.00589278
-0.00619578
-0.00648077
-0.0067425
-0.00699075
-0.00725736
-0.00756146
-0.00788988
-0.00821057
-0.00850464
-0.00879237
-0.0090961
-0.00940223
-0.00968826
-0.00996729
-0.0102553
-0.0105425
-0.0108266
-0.0111204
-0.0114239
-0.0117266
-0.0120377
-0.0123623
-0.0126968
-0.013033
-0.0133661
-0.0137036
-0.0140549
-0.0144112
-0.0147521
-0.0150971
-0.0154647
-0.0158408
-0.0162082
-0.0165795
-0.0169683
-0.0173581
-0.0177551
-0.018155
-0.0185584
-0.0189766
-0.0194121
-0.0198619
-0.0203123
-0.0207682
-0.0212229
-0.0216824
-0.0221486
-0.022616
-0.0231108
-0.0236167
-0.0241276
-0.0246443
-0.0251597
-0.0256928
-0.0262296
-0.0267782
-0.0273402
-0.0278976
-0.0284818
-0.0290581
-0.0296461
-0.0302577
-0.0308403
-0.0314544
-0.0320945
-0.0327047
-0.0333572
-0.0340201
-0.0346549
-0.0353362
-0.0360348
-0.0366916
-0.0373922
-0.0381277
-0.03882
-0.0395276
-0.0402857
-0.0410142
-0.0416925
-0.0423958
0.0231581
0.0170187
0.00723591
-0.000156069
-0.00323009
-0.00319824
-0.00257545
-0.00260114
-0.00315536
-0.00362446
-0.00381206
-0.00395469
-0.00411114
-0.00422254
-0.00445726
-0.00485492
-0.00517343
-0.00536356
-0.00559214
-0.00589
-0.00619318
-0.00647837
-0.00674033
-0.00698876
-0.00725552
-0.00755977
-0.00788836
-0.00820922
-0.00850339
-0.00879119
-0.00909501
-0.00940124
-0.00968732
-0.00996639
-0.0102545
-0.0105417
-0.0108259
-0.0111197
-0.0114232
-0.0117259
-0.0120371
-0.0123617
-0.0126962
-0.0130325
-0.0133656
-0.0137031
-0.0140544
-0.0144108
-0.0147517
-0.0150967
-0.0154643
-0.0158405
-0.0162078
-0.0165792
-0.016968
-0.0173578
-0.0177548
-0.0181547
-0.0185581
-0.0189764
-0.0194118
-0.0198617
-0.020312
-0.020768
-0.0212226
-0.0216822
-0.0221484
-0.0226158
-0.0231106
-0.0236165
-0.0241275
-0.0246441
-0.0251595
-0.0256926
-0.0262295
-0.026778
-0.0273401
-0.0278974
-0.0284817
-0.029058
-0.029646
-0.0302576
-0.0308402
-0.0314543
-0.0320944
-0.0327047
-0.0333571
-0.03402
-0.0346548
-0.0353362
-0.0360348
-0.0366915
-0.0373922
-0.0381277
-0.03882
-0.0395276
-0.0402857
-0.0410142
-0.0416925
-0.0423959
0.0220962
0.0168756
0.00746659
0.000152723
-0.00303332
-0.00312171
-0.00253753
-0.00256872
-0.00312568
-0.00359968
-0.00379323
-0.00394148
-0.00410267
-0.00421715
-0.00445274
-0.00485002
-0.00516842
-0.00535926
-0.00558877
-0.00588703
-0.00619016
-0.00647537
-0.00673758
-0.00698634
-0.00725335
-0.00755776
-0.0078865
-0.00820756
-0.00850192
-0.00878986
-0.00909379
-0.00940012
-0.00968627
-0.0099654
-0.0102536
-0.0105409
-0.0108251
-0.0111189
-0.0114225
-0.0117253
-0.0120364
-0.0123611
-0.0126956
-0.0130319
-0.013365
-0.0137026
-0.0140539
-0.0144104
-0.0147512
-0.0150962
-0.0154639
-0.0158401
-0.0162074
-0.0165788
-0.0169677
-0.0173574
-0.0177545
-0.0181544
-0.0185578
-0.0189761
-0.0194115
-0.0198614
-0.0203118
-0.0207678
-0.0212224
-0.021682
-0.0221482
-0.0226156
-0.0231104
-0.0236163
-0.0241273
-0.0246439
-0.0251593
-0.0256925
-0.0262294
-0.0267779
-0.02734
-0.0278973
-0.0284815
-0.0290579
-0.0296459
-0.0302575
-0.0308401
-0.0314542
-0.0320943
-0.0327046
-0.033357
-0.03402
-0.0346548
-0.0353361
-0.0360347
-0.0366915
-0.0373921
-0.0381276
-0.03882
-0.0395275
-0.0402856
-0.0410142
-0.0416925
-0.042396
0.0210264
0.0166558
0.00768731
0.000472061
-0.00282116
-0.00303709
-0.00249574
-0.00252971
-0.00308585
-0.00356408
-0.00376533
-0.00392123
-0.00408959
-0.00421005
-0.00444767
-0.00484358
-0.00516121
-0.00535346
-0.00558475
-0.00588361
-0.00618647
-0.00647149
-0.00673396
-0.00698323
-0.00725061
-0.00755511
-0.0078839
-0.00820519
-0.00849991
-0.00878814
-0.00909223
-0.00939866
-0.00968493
-0.00996416
-0.0102525
-0.0105398
-0.0108241
-0.011118
-0.0114216
-0.0117245
-0.0120357
-0.0123604
-0.0126949
-0.0130313
-0.0133644
-0.013702
-0.0140534
-0.0144098
-0.0147508
-0.0150958
-0.0154635
-0.0158396
-0.016207
-0.0165784
-0.0169673
-0.0173571
-0.0177541
-0.0181541
-0.0185575
-0.0189758
-0.0194112
-0.0198612
-0.0203115
-0.0207676
-0.0212222
-0.0216818
-0.022148
-0.0226153
-0.0231102
-0.0236161
-0.0241271
-0.0246438
-0.0251592
-0.0256923
-0.0262292
-0.0267777
-0.0273398
-0.0278972
-0.0284814
-0.0290578
-0.0296458
-0.0302574
-0.03084
-0.0314541
-0.0320942
-0.0327045
-0.0333569
-0.0340199
-0.0346547
-0.035336
-0.0360346
-0.0366914
-0.0373921
-0.0381276
-0.0388199
-0.0395275
-0.0402856
-0.0410142
-0.0416925
-0.0423962
0.0199564
0.0163691
0.0078992
0.000797419
-0.00259977
-0.00294841
-0.00245453
-0.00248926
-0.00304106
-0.00352206
-0.00373127
-0.00389548
-0.00407238
-0.00420104
-0.00444164
-0.00483532
-0.0051516
-0.00534594
-0.00557984
-0.00587955
-0.006182
-0.00646663
-0.00672944
-0.00697952
-0.00724742
-0.00755184
-0.00788036
-0.00820181
-0.00849708
-0.0087858
-0.00909011
-0.00939667
-0.00968313
-0.00996258
-0.010251
-0.0105385
-0.0108229
-0.0111169
-0.0114206
-0.0117235
-0.0120348
-0.0123595
-0.0126941
-0.0130305
-0.0133637
-0.0137013
-0.0140527
-0.0144092
-0.0147502
-0.0150952
-0.015463
-0.0158391
-0.0162065
-0.0165779
-0.0169669
-0.0173567
-0.0177537
-0.0181537
-0.0185571
-0.0189754
-0.0194109
-0.0198608
-0.0203112
-0.0207673
-0.0212219
-0.0216815
-0.0221477
-0.0226151
-0.02311
-0.0236159
-0.0241269
-0.0246436
-0.025159
-0.0256921
-0.026229
-0.0267776
-0.0273397
-0.027897
-0.0284812
-0.0290576
-0.0296456
-0.0302573
-0.0308398
-0.031454
-0.0320941
-0.0327044
-0.0333568
-0.0340198
-0.0346546
-0.0353359
-0.0360346
-0.0366913
-0.037392
-0.0381275
-0.0388199
-0.0395274
-0.0402856
-0.0410142
-0.0416926
-0.0423965
0.0189044
0.0160298
0.00810302
0.00112729
-0.00237032
-0.00285595
-0.00241452
-0.0024491
-0.00299398
-0.00347665
-0.00369383
-0.00386656
-0.0040526
-0.00419052
-0.00443457
-0.00482543
-0.00514006
-0.00533698
-0.00557403
-0.00587474
-0.00617666
-0.00646081
-0.00672412
-0.00697537
-0.00724402
-0.00754817
-0.00787605
-0.00819743
-0.00849334
-0.0087827
-0.00908724
-0.00939396
-0.00968074
-0.00996052
-0.0102492
-0.0105369
-0.0108215
-0.0111156
-0.0114193
-0.0117223
-0.0120337
-0.0123585
-0.0126931
-0.0130296
-0.0133629
-0.0137006
-0.0140519
-0.0144084
-0.0147495
-0.0150946
-0.0154623
-0.0158385
-0.0162059
-0.0165774
-0.0169664
-0.0173562
-0.0177533
-0.0181533
-0.0185567
-0.018975
-0.0194105
-0.0198605
-0.0203109
-0.020767
-0.0212216
-0.0216812
-0.0221474
-0.0226148
-0.0231097
-0.0236157
-0.0241267
-0.0246433
-0.0251588
-0.0256919
-0.0262288
-0.0267774
-0.0273395
-0.0278968
-0.0284811
-0.0290575
-0.0296455
-0.0302571
-0.0308397
-0.0314538
-0.032094
-0.0327042
-0.0333567
-0.0340197
-0.0346545
-0.0353358
-0.0360345
-0.0366912
-0.0373919
-0.0381274
-0.0388198
-0.0395274
-0.0402855
-0.0410142
-0.0416927
-0.0423968
0.0178845
0.0156425
0.0082913
0.00145756
-0.00213339
-0.00275845
-0.00237508
-0.00240964
-0.00294542
-0.00342884
-0.00365413
-0.00383572
-0.00403118
-0.00417883
-0.0044266
-0.00481443
-0.00512724
-0.00532698
-0.00556747
-0.00586924
-0.00617053
-0.00645416
-0.00671815
-0.00697092
-0.00724058
-0.00754442
-0.00787133
-0.00819238
-0.00848887
-0.00877887
-0.00908357
-0.00939041
-0.00967763
-0.00995789
-0.0102469
-0.0105349
-0.0108197
-0.0111139
-0.0114177
-0.0117208
-0.0120324
-0.0123573
-0.0126918
-0.0130284
-0.0133619
-0.0136996
-0.014051
-0.0144074
-0.0147487
-0.0150939
-0.0154616
-0.0158377
-0.0162052
-0.0165768
-0.0169658
-0.0173556
-0.0177527
-0.0181528
-0.0185562
-0.0189745
-0.01941
-0.01986
-0.0203105
-0.0207666
-0.0212213
-0.0216808
-0.022147
-0.0226144
-0.0231094
-0.0236154
-0.0241264
-0.0246431
-0.0251585
-0.0256917
-0.0262286
-0.0267771
-0.0273393
-0.0278966
-0.0284808
-0.0290573
-0.0296453
-0.0302569
-0.0308395
-0.0314536
-0.0320938
-0.032704
-0.0333565
-0.0340196
-0.0346543
-0.0353357
-0.0360344
-0.0366911
-0.0373918
-0.0381273
-0.0388197
-0.0395273
-0.0402855
-0.0410142
-0.0416928
-0.0423972
0.0169068
0.0152078
0.00845451
0.00178544
-0.00188728
-0.00265334
-0.00233509
-0.00237123
-0.00289593
-0.00337902
-0.00361264
-0.00380345
-0.00400849
-0.0041662
-0.00441801
-0.00480278
-0.00511361
-0.00531625
-0.00556034
-0.00586321
-0.00616381
-0.00644688
-0.00671165
-0.0069662
-0.00723711
-0.00754069
-0.00786651
-0.00818703
-0.008484
-0.00877453
-0.00907924
-0.00938612
-0.00967383
-0.00995467
-0.0102441
-0.0105325
-0.0108177
-0.0111121
-0.0114159
-0.0117191
-0.0120309
-0.0123558
-0.0126903
-0.0130269
-0.0133606
-0.0136985
-0.0140497
-0.0144062
-0.0147477
-0.0150931
-0.0154608
-0.0158368
-0.0162044
-0.0165761
-0.0169652
-0.017355
-0.0177521
-0.0181522
-0.0185557
-0.018974
-0.0194094
-0.0198594
-0.02031
-0.0207662
-0.0212209
-0.0216803
-0.0221466
-0.022614
-0.023109
-0.023615
-0.024126
-0.0246427
-0.0251582
-0.0256914
-0.0262283
-0.0267768
-0.027339
-0.0278963
-0.0284806
-0.029057
-0.029645
-0.0302567
-0.0308392
-0.0314534
-0.0320936
-0.0327038
-0.0333563
-0.0340194
-0.0346541
-0.0353355
-0.0360342
-0.036691
-0.0373917
-0.0381272
-0.0388195
-0.0395272
-0.0402854
-0.0410141
-0.041693
-0.0423977
0.0159773
0.0147273
0.00858591
0.00211048
-0.00162964
-0.0025384
-0.002294
-0.00233472
-0.00284645
-0.00332769
-0.00356958
-0.0037699
-0.00398473
-0.00415282
-0.00440902
-0.00479072
-0.00509939
-0.00530491
-0.00555274
-0.00585677
-0.00615666
-0.00643913
-0.00670475
-0.00696122
-0.00723353
-0.00753696
-0.00786165
-0.0081816
-0.00847896
-0.00876992
-0.00907448
-0.00938126
-0.00966946
-0.00995094
-0.0102408
-0.0105296
-0.0108154
-0.01111
-0.0114139
-0.0117173
-0.0120293
-0.0123541
-0.0126884
-0.0130251
-0.0133591
-0.0136972
-0.0140483
-0.0144047
-0.0147465
-0.0150922
-0.0154598
-0.0158357
-0.0162033
-0.0165752
-0.0169644
-0.0173543
-0.0177514
-0.0181516
-0.0185551
-0.0189734
-0.0194087
-0.0198587
-0.0203093
-0.0207657
-0.0212204
-0.0216798
-0.022146
-0.0226135