/*--------------------------------*- C++ -*----------------------------------*\
| =========                 |                                                 |
| \\      /  F ield         | OpenFOAM: The Open Source CFD Toolbox           |
|  \\    /   O peration     | Version:  2506                                  |
|   \\  /    A nd           | Website:  www.openfoam.com                      |
|    \\/     M anipulation  |                                                 |
\*---------------------------------------------------------------------------*/
FoamFile
{
    version     2.0;
    format      ascii;
    arch        "LSB;label=32;scalar=64";
    class       volVectorField;
    location    "1.25";
    object      U;
}
// * * * * * * * * * * * * * * * * * * * * * * * * * * * * * * * * * * * * * //

dimensions      [0 1 -1 0 0 0 0];

internalField   nonuniform List<vector> 
9600
(
(0.856778 -0.00195153 0)
(1.14005 0.00101374 0)
(0.872624 -0.0021372 0)
(1.14344 -0.000204745 0)
(0.891312 0.00332576 0)
(1.08451 -0.00478623 0)
(0.886455 0.00518541 0)
(1.15601 -0.00741521 0)
(0.859432 -0.00136832 0)
(1.16637 0.00363116 0)
(0.872699 -0.000813384 0)
(1.11363 0.00620663 0)
(0.893537 0.00550815 0)
(1.0837 0.007152 0)
(0.908217 0.00233692 0)
(1.078 -0.00355732 0)
(0.897503 0.00331471 0)
(1.08528 -0.00962291 0)
(0.874235 0.000749067 0)
(1.09606 -0.0149672 0)
(0.867931 -0.00200166 0)
(1.12906 0.00104645 0)
(0.886919 -0.00233583 0)
(1.13159 -0.000182566 0)
(0.905816 0.00368977 0)
(1.07225 -0.00449171 0)
(0.901698 0.00416223 0)
(1.13508 -0.00684506 0)
(0.879606 -0.00185403 0)
(1.14153 0.00367518 0)
(0.90276 -0.000185987 0)
(1.08595 0.00614152 0)
(0.929281 0.00591793 0)
(1.04757 0.00702589 0)
(0.956505 0.00234661 0)
(1.02744 -0.00328403 0)
(0.963955 0.00308141 0)
(1.01143 -0.00947805 0)
(0.969887 0.000836479 0)
(0.987117 -0.0166664 0)
(0.888266 -0.00204608 0)
(1.10787 0.00103261 0)
(0.911318 -0.00250835 0)
(1.10862 -0.000176065 0)
(0.930968 0.00409674 0)
(1.05251 -0.00433782 0)
(0.928913 0.00329737 0)
(1.10317 -0.00643276 0)
(0.916677 -0.00209488 0)
(1.10028 0.00357098 0)
(0.947337 0.000456616 0)
(1.04644 0.00583988 0)
(0.967781 0.00646794 0)
(1.01544 0.00661111 0)
(0.987926 0.00268445 0)
(1.00209 -0.00342452 0)
(0.990143 0.00336149 0)
(0.997202 -0.00929116 0)
(0.988584 0.0011033 0)
(0.989224 -0.0123628 0)
(0.914042 -0.00206221 0)
(1.08036 0.000954909 0)
(0.939218 -0.00260878 0)
(1.07905 -0.000222319 0)
(0.95828 0.00446251 0)
(1.03136 -0.00423853 0)
(0.959016 0.00272009 0)
(1.06926 -0.00624866 0)
(0.955301 -0.0021006 0)
(1.06051 0.00323233 0)
(0.983581 0.00111921 0)
(1.01872 0.00562225 0)
(0.989581 0.00685268 0)
(1.00376 0.00633339 0)
(0.998932 0.00287812 0)
(0.997838 -0.00346056 0)
(0.996269 0.00343302 0)
(0.997091 -0.0092132 0)
(0.991869 0.00128909 0)
(0.990555 -0.0111588 0)
(0.940471 -0.00204725 0)
(1.05238 0.0008313 0)
(0.964134 -0.002658 0)
(1.04949 -0.000307848 0)
(0.980134 0.00478412 0)
(1.01433 -0.0041822 0)
(0.983319 0.002301 0)
(1.04098 -0.00619694 0)
(0.982813 -0.00200175 0)
(1.03323 0.00289688 0)
(1.00277 0.00163561 0)
(1.00743 0.0056098 0)
(0.999353 0.00704047 0)
(1.00357 0.00620406 0)
(1.00379 0.00300156 0)
(0.998866 -0.00338391 0)
(0.999085 0.00338893 0)
(0.997895 -0.00893704 0)
(0.993446 0.00129664 0)
(0.990631 -0.0100131 0)
(0.963283 -0.00200825 0)
(1.02917 0.000692427 0)
(0.982173 -0.00266779 0)
(1.02544 -0.000390434 0)
(0.993311 0.00502099 0)
(1.00379 -0.0041772 0)
(0.998195 0.00200855 0)
(1.0214 -0.0061792 0)
(0.99652 -0.00191342 0)
(1.0179 0.00266378 0)
(1.00871 0.00195773 0)
(1.00466 0.00567406 0)
(1.00407 0.00710719 0)
(1.00597 0.00611068 0)
(1.00681 0.00315116 0)
(1.0005 -0.00327308 0)
(1.00064 0.00336502 0)
(0.999025 -0.00854537 0)
(0.994104 0.00122929 0)
(0.991135 -0.00863327 0)
(0.980099 -0.00195821 0)
(1.0133 0.000569308 0)
(0.992806 -0.00264659 0)
(1.00916 -0.000447574 0)
(0.99898 0.00514984 0)
(0.998924 -0.00420458 0)
(1.00486 0.00182383 0)
(1.00961 -0.00614491 0)
(1.00036 -0.00186808 0)
(1.00927 0.00250606 0)
(1.00785 0.00212637 0)
(1.00347 0.00569542 0)
(1.00591 0.00709964 0)
(1.00748 0.00603339 0)
(1.00799 0.00331166 0)
(1.00164 -0.00311404 0)
(1.00115 0.00332951 0)
(0.999875 -0.00805967 0)
(0.994379 0.00112676 0)
(0.991577 -0.00718063 0)
(0.990737 -0.0019092 0)
(1.00436 0.000478416 0)
(0.997779 -0.00260457 0)
(0.999918 -0.000476977 0)
(1.00028 0.00518496 0)
(0.99754 -0.00424574 0)
(1.00646 0.00171465 0)
(1.00327 -0.00607714 0)
(0.999445 -0.00184373 0)
(1.00353 0.0023869 0)
(1.00453 0.00220638 0)
(1.00149 0.00564501 0)
(1.00543 0.00704494 0)
(1.00738 0.00595826 0)
(1.00767 0.00347017 0)
(1.002 -0.00291765 0)
(1.00111 0.0032642 0)
(1.0003 -0.00750594 0)
(0.994655 0.000987837 0)
(0.991974 -0.00572286 0)
(0.996509 -0.0018675 0)
(1.00027 0.000419126 0)
(0.999433 -0.00254889 0)
(0.995555 -0.000486169 0)
(0.999962 0.00515465 0)
(0.997777 -0.0042878 0)
(1.00571 0.00165393 0)
(1.00027 -0.00597815 0)
(0.997227 -0.00181139 0)
(0.999363 0.0022939 0)
(1.00099 0.0022384 0)
(0.99895 0.00554582 0)
(1.00356 0.00695554 0)
(1.00615 0.00586501 0)
(1.00661 0.00360663 0)
(1.00183 -0.0027056 0)
(1.00089 0.00315054 0)
(1.00049 -0.00689504 0)
(0.995002 0.000815951 0)
(0.992434 -0.00432101 0)
(0.999169 -0.00183344 0)
(0.99885 0.000382359 0)
(0.999583 -0.00248398 0)
(0.993979 -0.000485881 0)
(0.9995 0.00508381 0)
(0.998542 -0.00431884 0)
(1.00417 0.00162192 0)
(0.999122 -0.00585852 0)
(0.995279 -0.00175498 0)
(0.996532 0.0022234 0)
(0.998196 0.00224461 0)
(0.996595 0.00542669 0)
(1.00139 0.00683326 0)
(1.00457 0.00575168 0)
(1.00542 0.00369165 0)
(1.00149 -0.00249158 0)
(1.00067 0.00298994 0)
(1.00056 -0.0062405 0)
(0.995349 0.000616269 0)
(0.992895 -0.00301334 0)
(1.00018 -0.00180433 0)
(0.998572 0.000358454 0)
(0.999247 -0.00241336 0)
(0.993738 -0.000486188 0)
(0.999301 0.0049899 0)
(0.999327 -0.00432932 0)
(1.00255 0.00160318 0)
(0.998888 -0.00572829 0)
(0.993995 -0.00167371 0)
(0.994888 0.00217015 0)
(0.996467 0.00224039 0)
(0.994916 0.00530272 0)
(0.99964 0.00668544 0)
(1.00321 0.00562037 0)
(1.00443 0.00372533 0)
(1.00118 -0.00226743 0)
(1.00046 0.00279268 0)
(1.00052 -0.00555441 0)
(0.995614 0.000413858 0)
(0.993255 -0.00182156 0)
(1.00045 -0.00177716 0)
(0.998669 0.000340195 0)
(0.998863 -0.00233957 0)
(0.994008 -0.000491851 0)
(0.999307 0.00488383 0)
(0.999936 -0.0043152 0)
(1.00113 0.00158783 0)
(0.999001 -0.00559445 0)
(0.993294 -0.00157519 0)
(0.994121 0.00212883 0)
(0.995691 0.00223041 0)
(0.994002 0.00518494 0)
(0.998534 0.00652016 0)
(1.00228 0.00547992 0)
(1.00373 0.00371001 0)
(1.00097 -0.00202611 0)
(1.00026 0.00256688 0)
(1.00038 -0.00485715 0)
(0.995766 0.000229852 0)
(0.993472 -0.000766711 0)
(1.00046 -0.00174981 0)
(0.998832 0.000322921 0)
(0.998574 -0.0022635 0)
(0.994393 -0.000504062 0)
(0.999378 0.00477196 0)
(1.00033 -0.00427759 0)
(1.00002 0.00157103 0)
(0.999161 -0.00546058 0)
(0.992994 -0.0014699 0)
(0.993879 0.00209556 0)
(0.995566 0.00221029 0)
(0.993689 0.00508355 0)
(0.997992 0.0063396 0)
(1.00175 0.00534082 0)
(1.00325 0.00365532 0)
(1.00083 -0.00176818 0)
(1.00007 0.00233416 0)
(1.00018 -0.00416835 0)
(0.995836 9.17665e-05 0)
(0.993576 0.000140883 0)
(1.0004 -0.00172106 0)
(0.998963 0.000303875 0)
(0.998401 -0.00218483 0)
(0.994738 -0.000522018 0)
(0.999433 0.00465774 0)
(1.00052 -0.00422002 0)
(0.999226 0.00154998 0)
(0.999247 -0.0053266 0)
(0.992941 -0.0013669 0)
(0.993897 0.00206702 0)
(0.995775 0.00217759 0)
(0.993745 0.00500153 0)
(0.997823 0.00614447 0)
(1.0015 0.00521193 0)
(1.00293 0.00357433 0)
(1.00074 -0.00149366 0)
(0.999883 0.00210916 0)
(0.999955 -0.00350919 0)
(0.995882 2.37328e-05 0)
(0.993633 0.000909222 0)
(1.00035 -0.00169016 0)
(0.999042 0.000281433 0)
(0.998321 -0.00210284 0)
(0.995007 -0.000544286 0)
(0.999448 0.00454288 0)
(1.00059 -0.00414748 0)
(0.998724 0.00152407 0)
(0.999242 -0.00519043 0)
(0.993024 -0.00127193 0)
(0.99402 0.00204376 0)
(0.996088 0.0021281 0)
(0.993973 0.0049398 0)
(0.997852 0.00593632 0)
(1.00141 0.00509788 0)
(1.00269 0.00347451 0)
(1.00068 -0.00121318 0)
(0.999731 0.00191524 0)
(0.999755 -0.00288968 0)
(0.995957 2.95408e-05 0)
(0.993706 0.00154713 0)
(1.00031 -0.00165659 0)
(0.999079 0.000254464 0)
(0.998299 -0.00201668 0)
(0.995213 -0.000569923 0)
(0.999428 0.00442821 0)
(1.00057 -0.00406467 0)
(0.998445 0.00149352 0)
(0.999179 -0.0050488 0)
(0.993169 -0.0011909 0)
(0.994172 0.00203073 0)
(0.996384 0.00205736 0)
(0.994246 0.00489388 0)
(0.997963 0.00572183 0)
(1.0014 0.00499316 0)
(1.00251 0.00336895 0)
(1.00064 -0.000938042 0)
(0.99962 0.00177113 0)
(0.999599 -0.00231237 0)
(0.996085 0.000101672 0)
(0.993829 0.00206784 0)
(1.00029 -0.00162 0)
(0.99909 0.00022221 0)
(0.998304 -0.00192574 0)
(0.995377 -0.000597992 0)
(0.999385 0.00431391 0)
(1.00051 -0.00397483 0)
(0.998313 0.00145776 0)
(0.9991 -0.00489754 0)
(0.993336 -0.00112794 0)
(0.994321 0.00203022 0)
(0.996622 0.0019646 0)
(0.994502 0.00486324 0)
(0.998087 0.00549583 0)
(1.00141 0.00490006 0)
(1.00234 0.00327114 0)
(1.00061 -0.000677027 0)
(0.999545 0.00167684 0)
(0.999488 -0.00177794 0)
(0.996267 0.000216397 0)
(0.994012 0.0024999 0)
(1.00028 -0.00158005 0)
(0.999092 0.000183875 0)
(0.998315 -0.00182988 0)
(0.99552 -0.000628202 0)
(0.99933 0.00420025 0)
(1.00045 -0.00388033 0)
(0.998261 0.00141588 0)
(0.999029 -0.00473348 0)
(0.993509 -0.00108222 0)
(0.994456 0.00204422 0)
(0.996804 0.00185169 0)
(0.994716 0.00484321 0)
(0.998191 0.00526486 0)
(1.00141 0.00480502 0)
(1.00217 0.00320032 0)
(1.00058 -0.000444351 0)
(0.999497 0.00163617 0)
(0.999412 -0.00127299 0)
(0.996491 0.000358117 0)
(0.994246 0.00286707 0)
(1.00027 -0.0015367 0)
(0.999095 0.000139829 0)
(0.998321 -0.00172839 0)
(0.995655 -0.000660885 0)
(0.999269 0.00408723 0)
(1.0004 -0.00378153 0)
(0.998244 0.00136656 0)
(0.998976 -0.00455533 0)
(0.993686 -0.00105229 0)
(0.994575 0.0020764 0)
(0.996948 0.00172387 0)
(0.994892 0.00482088 0)
(0.998263 0.00504532 0)
(1.00139 0.00469564 0)
(1.002 0.00315026 0)
(1.00054 -0.000247404 0)
(0.999469 0.00163083 0)
(0.999359 -0.000787488 0)
(0.996741 0.000507091 0)
(0.994516 0.00317445 0)
(1.00025 -0.00149001 0)
(0.999105 9.03315e-05 0)
(0.998321 -0.00162099 0)
(0.995791 -0.000694775 0)
(0.999205 0.00397372 0)
(1.00035 -0.00367815 0)
(0.998236 0.00130882 0)
(0.99894 -0.00436065 0)
(0.993868 -0.00104314 0)
(0.994683 0.00212538 0)
(0.997069 0.00158195 0)
(0.995044 0.00479997 0)
(0.998306 0.00483409 0)
(1.00135 0.00456485 0)
(1.00181 0.00313455 0)
(1.0005 -6.66596e-05 0)
(0.999458 0.0016489 0)
(0.99932 -0.000312471 0)
(0.997003 0.000655459 0)
(0.994813 0.00342569 0)
(1.00023 -0.00143966 0)
(0.999124 3.4416e-05 0)
(0.998313 -0.00150814 0)
(0.99593 -0.000730402 0)
(0.999142 0.00385934 0)
(1.00032 -0.0035694 0)
(0.998226 0.0012402 0)
(0.998914 -0.00414749 0)
(0.994057 -0.00105522 0)
(0.994785 0.00218768 0)
(0.997179 0.00143124 0)
(0.995185 0.00476846 0)
(0.998324 0.00464633 0)
(1.0013 0.00439992 0)
(1.00162 0.00316164 0)
(1.00045 0.000112047 0)
(0.999462 0.0016757 0)
(0.999288 0.000162382 0)
(0.997268 0.000808823 0)
(0.99513 0.00361523 0)
(1.00021 -0.00138585 0)
(0.999151 -2.75414e-05 0)
(0.9983 -0.00139011 0)
(0.996073 -0.000767615 0)
(0.999079 0.0037438 0)
(1.0003 -0.00345349 0)
(0.998213 0.00116037 0)
(0.998893 -0.00391717 0)
(0.994255 -0.00108386 0)
(0.994885 0.00226141 0)
(0.997284 0.00127983 0)
(0.995324 0.00471435 0)
(0.998326 0.00449348 0)
(1.00126 0.00420981 0)
(1.00143 0.00320938 0)
(1.00041 0.000290423 0)
(0.999486 0.00169148 0)
(0.999264 0.000634498 0)
(0.997525 0.000975225 0)
(0.995464 0.00373128 0)
(1.00018 -0.00132858 0)
(0.999183 -9.56151e-05 0)
(0.998285 -0.0012675 0)
(0.996218 -0.000804325 0)
(0.999017 0.00362419 0)
(1.00028 -0.00332978 0)
(0.9982 0.00106858 0)
(0.998872 -0.00366944 0)
(0.99446 -0.00112887 0)
(0.994984 0.00234239 0)
(0.997386 0.00113516 0)
(0.995468 0.00463811 0)
(0.998317 0.00437868 0)
(1.00122 0.00399244 0)
(1.00125 0.00327037 0)
(1.00035 0.000479229 0)
(0.999531 0.00168246 0)
(0.999248 0.0010843 0)
(0.99777 0.00117098 0)
(0.995813 0.0037763 0)
(1.00015 -0.00126778 0)
(0.99922 -0.000169807 0)
(0.99827 -0.00114069 0)
(0.996364 -0.000841074 0)
(0.998958 0.00350114 0)
(1.00027 -0.00319504 0)
(0.99819 0.00095986 0)
(0.998848 -0.00340442 0)
(0.994674 -0.00118496 0)
(0.995084 0.00242261 0)
(0.997484 0.00100733 0)
(0.995619 0.00452524 0)
(0.9983 0.0043053 0)
(1.00119 0.00374999 0)
(1.00108 0.00333556 0)
(1.00029 0.000691848 0)
(0.999599 0.00165842 0)
(0.999247 0.00149151 0)
(0.997995 0.00140885 0)
(0.996175 0.0037622 0)
(1.00012 -0.00120393 0)
(0.999258 -0.000248959 0)
(0.998258 -0.00101205 0)
(0.996508 -0.000873763 0)
(0.998904 0.00337279 0)
(1.00026 -0.00304785 0)
(0.998188 0.000835736 0)
(0.99882 -0.00312761 0)
(0.994895 -0.00124712 0)
(0.995186 0.00249513 0)
(0.99758 0.00090544 0)
(0.995779 0.00436827 0)
(0.998276 0.00426089 0)
(1.00116 0.00350892 0)
(1.00093 0.00338722 0)
(1.00021 0.000941574 0)
(0.999683 0.0016396 0)
(0.999265 0.00184331 0)
(0.998198 0.00169021 0)
(0.996541 0.00371015 0)
(1.0001 -0.00113693 0)
(0.999296 -0.000332733 0)
(0.998252 -0.000882816 0)
(0.996649 -0.000902172 0)
(0.998854 0.0032377 0)
(1.00024 -0.002888 0)
(0.998195 0.000699954 0)
(0.998788 -0.0028414 0)
(0.995122 -0.00130946 0)
(0.995291 0.00255049 0)
(0.997672 0.000836113 0)
(0.995948 0.0041765 0)
(0.998248 0.00424776 0)
(1.00114 0.00327436 0)
(1.0008 0.00341026 0)
(1.00013 0.00122801 0)
(0.999778 0.00162232 0)
(0.999307 0.00212782 0)
(0.998377 0.00200639 0)
(0.996904 0.00365029 0)
(1.00008 -0.0010671 0)
(0.999334 -0.000420472 0)
(0.998253 -0.000754386 0)
(0.996785 -0.000923624 0)
(0.99881 0.00309249 0)
(1.00022 -0.00271123 0)
(0.998214 0.00055239 0)
(0.998755 -0.0025509 0)
(0.995353 -0.00136463 0)
(0.995401 0.00258231 0)
(0.997761 0.000803326 0)
(0.996129 0.0039556 0)
(0.998218 0.00425777 0)
(1.00112 0.0030598 0)
(1.00071 0.00340368 0)
(1.00004 0.00153754 0)
(0.999875 0.00162273 0)
(0.999378 0.00234125 0)
(0.998537 0.00234061 0)
(0.997252 0.00360927 0)
(1.00006 -0.000995009 0)
(0.999371 -0.000511153 0)
(0.99826 -0.000629189 0)
(0.996918 -0.000933354 0)
(0.998774 0.00293438 0)
(1.00019 -0.00252092 0)
(0.998242 0.000397734 0)
(0.998721 -0.00226319 0)
(0.995586 -0.0014094 0)
(0.995516 0.0025859 0)
(0.997845 0.000806045 0)
(0.99632 0.00371089 0)
(0.998188 0.00427062 0)
(1.0011 0.00288504 0)
(1.00064 0.00336375 0)
(0.999941 0.00186261 0)
(0.999967 0.00165859 0)
(0.999479 0.0024826 0)
(0.998682 0.00267012 0)
(0.997574 0.00360905 0)
(1.00004 -0.000920844 0)
(0.999409 -0.000603132 0)
(0.998275 -0.000511271 0)
(0.997047 -0.000930262 0)
(0.998745 0.00276476 0)
(1.00016 -0.00231829 0)
(0.99828 0.000237875 0)
(0.99869 -0.00198113 0)
(0.995819 -0.00144097 0)
(0.995639 0.00255721 0)
(0.997924 0.000840235 0)
(0.996521 0.00345441 0)
(0.998162 0.00428197 0)
(1.00108 0.00275348 0)
(1.00061 0.00328612 0)
(0.999844 0.00218825 0)
(1.00004 0.00173568 0)
(0.999609 0.00255716 0)
(0.998823 0.00296935 0)
(0.997861 0.0036697 0)
(1.00003 -0.000845351 0)
(0.999447 -0.000695045 0)
(0.998296 -0.000404286 0)
(0.997173 -0.000910511 0)
(0.998725 0.00258443 0)
(1.00012 -0.0021059 0)
(0.998326 8.3055e-05 0)
(0.998662 -0.00171802 0)
(0.99605 -0.00144527 0)
(0.995771 0.00249547 0)
(0.997998 0.000904117 0)
(0.996733 0.00319655 0)
(0.998144 0.00428036 0)
(1.00104 0.00267166 0)
(1.0006 0.00318124 0)
(0.999757 0.00249798 0)
(1.0001 0.00186099 0)
(0.999762 0.00258338 0)
(0.998972 0.00321196 0)
(0.998107 0.00380326 0)
(1.00002 -0.000769022 0)
(0.999487 -0.000785026 0)
(0.998324 -0.000312015 0)
(0.997297 -0.000871804 0)
(0.998715 0.00239477 0)
(1.00007 -0.00188927 0)
(0.998377 -6.51832e-05 0)
(0.99864 -0.00148028 0)
(0.996278 -0.00142128 0)
(0.995913 0.00240821 0)
(0.998068 0.000986776 0)
(0.996953 0.00294926 0)
(0.998137 0.00426412 0)
(1.001 0.00263448 0)
(1.00063 0.0030616 0)
(0.999686 0.00276762 0)
(1.00013 0.00202409 0)
(0.999931 0.00258525 0)
(0.999143 0.00337874 0)
(0.998318 0.00398402 0)
(1.00001 -0.000692415 0)
(0.999529 -0.000870766 0)
(0.998358 -0.000236592 0)
(0.997417 -0.000814901 0)
(0.998713 0.00219842 0)
(1.00003 -0.00167281 0)
(0.998432 -0.000205833 0)
(0.998625 -0.0012658 0)
(0.996501 -0.0013753 0)
(0.996065 0.0023006 0)
(0.998134 0.00108541 0)
(0.99718 0.00271834 0)
(0.998145 0.00423234 0)
(1.00095 0.00264325 0)
(1.00068 0.00293381 0)
(0.999637 0.00298298 0)
(1.00014 0.00222686 0)
(1.0001 0.00259147 0)
(0.999343 0.00346605 0)
(0.998509 0.00415739 0)
(1 -0.000616664 0)
(0.999575 -0.000949818 0)
(0.9984 -0.000179582 0)
(0.997534 -0.000740255 0)
(0.998719 0.00200094 0)
(0.999984 -0.0014645 0)
(0.998491 -0.000324045 0)
(0.998618 -0.00107834 0)
(0.996719 -0.00130472 0)
(0.996227 0.00217637 0)
(0.998197 0.00119461 0)
(0.99741 0.00251229 0)
(0.998172 0.00417789 0)
(1.00089 0.00269196 0)
(1.00075 0.002806 0)
(0.999619 0.00314458 0)
(1.00013 0.00245559 0)
(1.00027 0.00261612 0)
(0.999568 0.00349145 0)
(0.9987 0.00428438 0)
(0.999994 -0.000542819 0)
(0.999623 -0.00101881 0)
(0.998449 -0.000142489 0)
(0.997648 -0.000651797 0)
(0.998731 0.0018054 0)
(0.999941 -0.00126405 0)
(0.998553 -0.000418287 0)
(0.99862 -0.000921124 0)
(0.996933 -0.00121357 0)
(0.996399 0.00204373 0)
(0.998258 0.00130502 0)
(0.997642 0.00234072 0)
(0.998218 0.0041084 0)
(1.00083 0.00276001 0)
(1.00083 0.0026877 0)
(0.999635 0.00324417 0)
(1.0001 0.00268323 0)
(1.00041 0.0026641 0)
(0.999812 0.00348496 0)
(0.998909 0.00434782 0)
(0.999987 -0.000470969 0)
(0.999672 -0.00107708 0)
(0.998507 -0.000123747 0)
(0.99776 -0.000555834 0)
(0.99875 0.00161727 0)
(0.999899 -0.00107535 0)
(0.998617 -0.000487824 0)
(0.998631 -0.000786039 0)
(0.997142 -0.00110791 0)
(0.996582 0.00191044 0)
(0.99832 0.00141435 0)
(0.997874 0.00220338 0)
(0.998285 0.00401823 0)
(1.00075 0.00284526 0)
(1.00092 0.00258601 0)
(0.999686 0.00329095 0)
(1.00008 0.0029025 0)
(1.00054 0.00273719 0)
(1.00007 0.0034701 0)
(0.999144 0.00435527 0)
(0.99998 -0.000403027 0)
(0.999723 -0.00112111 0)
(0.998574 -0.000122819 0)
(0.997869 -0.000456667 0)
(0.998774 0.00144016 0)
(0.99986 -0.000899926 0)
(0.998682 -0.000536405 0)
(0.998652 -0.000667665 0)
(0.997346 -0.000990129 0)
(0.996775 0.00178297 0)
(0.998383 0.00151851 0)
(0.998102 0.00209404 0)
(0.998372 0.00390547 0)
(1.00067 0.00293824 0)
(1.001 0.00251002 0)
(0.999772 0.00329185 0)
(1.00005 0.00310418 0)
(1.00064 0.00283095 0)
(1.00032 0.00345373 0)
(0.999403 0.00432267 0)
(0.999974 -0.000338535 0)
(0.999774 -0.00115063 0)
(0.99865 -0.000138498 0)
(0.997977 -0.000357545 0)
(0.998803 0.0012714 0)
(0.999824 -0.00073366 0)
(0.998748 -0.000560934 0)
(0.998682 -0.000571386 0)
(0.997545 -0.000855379 0)
(0.996978 0.00166646 0)
(0.998451 0.0016129 0)
(0.998324 0.0020097 0)
(0.99848 0.00377552 0)
(1.00059 0.00302677 0)
(1.00108 0.00246181 0)
(0.999889 0.00324921 0)
(1.00004 0.00327887 0)
(1.00072 0.00294473 0)
(1.00056 0.00343882 0)
(0.99968 0.00426601 0)
(0.999969 -0.000279296 0)
(0.999825 -0.00116265 0)
(0.998734 -0.000169818 0)
(0.998083 -0.000263556 0)
(0.998838 0.0011138 0)
(0.999792 -0.000581925 0)
(0.998812 -0.000558262 0)
(0.998722 -0.000489644 0)
(0.997741 -0.000707371 0)
(0.997187 0.0015684 0)
(0.998524 0.00169339 0)
(0.998539 0.00194451 0)
(0.998608 0.00362726 0)
(1.00051 0.00310552 0)
(1.00114 0.00244856 0)
(1.00003 0.00317547 0)
(1.00005 0.00341424 0)
(1.00078 0.00307434 0)
(1.00078 0.00343249 0)
(0.999966 0.00420161 0)
(0.999965 -0.000226127 0)
(0.999873 -0.0011562 0)
(0.998826 -0.00021503 0)
(0.998188 -0.000176973 0)
(0.998877 0.000969959 0)
(0.999766 -0.000448559 0)
(0.998876 -0.00052834 0)
(0.998772 -0.000416721 0)
(0.997933 -0.000555079 0)
(0.997403 0.00149887 0)
(0.998601 0.0017622 0)
(0.998744 0.00189342 0)
(0.998755 0.0034617 0)
(1.00044 0.00316485 0)
(1.00119 0.00246697 0)
(1.0002 0.00308315 0)
(1.00009 0.00350113 0)
(1.00082 0.00320879 0)
(1.00099 0.00343574 0)
(1.00026 0.00412709 0)
(0.999961 -0.000178355 0)
(0.99992 -0.00113338 0)
(0.998924 -0.000272422 0)
(0.998292 -9.88819e-05 0)
(0.998921 0.00083866 0)
(0.999747 -0.000332621 0)
(0.998938 -0.000469172 0)
(0.998829 -0.0003475 0)
(0.998125 -0.000405737 0)
(0.997622 0.00145013 0)
(0.998682 0.00182227 0)
(0.998937 0.00185786 0)
(0.998919 0.00328725 0)
(1.00039 0.00320116 0)
(1.00122 0.00251227 0)
(1.00038 0.0029886 0)
(1.00016 0.00353893 0)
(1.00085 0.00333625 0)
(1.00116 0.00345068 0)
(1.00055 0.0040399 0)
(0.999959 -0.000138211 0)
(0.999962 -0.00109163 0)
(0.999028 -0.000339815 0)
(0.998397 -3.08826e-05 0)
(0.998967 0.000721189 0)
(0.999737 -0.000242293 0)
(0.999001 -0.000383591 0)
(0.998893 -0.000270816 0)
(0.998316 -0.000263845 0)
(0.997844 0.00140941 0)
(0.998767 0.00187758 0)
(0.999117 0.00183736 0)
(0.999098 0.00311174 0)
(1.00036 0.00321062 0)
(1.00124 0.0025822 0)
(1.00056 0.00291145 0)
(1.00027 0.00353011 0)
(1.00089 0.00344098 0)
(1.00131 0.00348245 0)
(1.00083 0.00395424 0)
(0.999959 -0.000104449 0)
(1 -0.00103385 0)
(0.999137 -0.000414294 0)
(0.998501 2.65492e-05 0)
(0.999016 0.000619725 0)
(0.999736 -0.000181486 0)
(0.999065 -0.000276866 0)
(0.998961 -0.00017849 0)
(0.998504 -0.00013429 0)
(0.99807 0.00137067 0)
(0.998856 0.00193019 0)
(0.999282 0.00183677 0)
(0.999286 0.00294247 0)
(1.00035 0.00318855 0)
(1.00125 0.00265769 0)
(1.00073 0.0028592 0)
(1.0004 0.00349253 0)
(1.00093 0.00351409 0)
(1.00143 0.00352663 0)
(1.00108 0.00388515 0)
(0.999959 -7.92184e-05 0)
(1.00003 -0.000958453 0)
(0.999248 -0.000490658 0)
(0.998608 6.83472e-05 0)
(0.999065 0.000539157 0)
(0.999747 -0.000147381 0)
(0.999134 -0.000161901 0)
(0.999031 -6.60108e-05 0)
(0.998688 -1.92025e-05 0)
(0.9983 0.00132719 0)
(0.998953 0.00197293 0)
(0.999431 0.00185984 0)
(0.999479 0.00278608 0)
(1.00038 0.00313871 0)
(1.00125 0.00272782 0)
(1.0009 0.00282987 0)
(1.00055 0.00344576 0)
(1.00099 0.00355676 0)
(1.00154 0.00356698 0)
(1.00131 0.003841 0)
(0.99996 -6.04628e-05 0)
(1.00006 -0.000870358 0)
(0.999359 -0.000566025 0)
(0.998716 9.63737e-05 0)
(0.999112 0.000481734 0)
(0.999767 -0.000132253 0)
(0.99921 -5.44163e-05 0)
(0.999102 7.04925e-05 0)
(0.998863 9.63311e-05 0)
(0.998533 0.00128069 0)
(0.999061 0.0020003 0)
(0.999566 0.00190163 0)
(0.999671 0.00264906 0)
(1.00043 0.00306145 0)
(1.00126 0.0027871 0)
(1.00105 0.00281629 0)
(1.00072 0.003394 0)
(1.00107 0.00357861 0)
(1.00164 0.0035907 0)
(1.00151 0.00380996 0)
(0.999962 -4.93003e-05 0)
(1.00008 -0.000770934 0)
(0.999469 -0.000635884 0)
(0.998828 0.000110451 0)
(0.999159 0.000448279 0)
(0.999795 -0.000127804 0)
(0.999298 3.97073e-05 0)
(0.999175 0.000224473 0)
(0.999027 0.000224514 0)
(0.998767 0.00123032 0)
(0.999183 0.0020097 0)
(0.999689 0.00195507 0)
(0.999854 0.00254615 0)
(1.00051 0.0029649 0)
(1.00128 0.00282398 0)
(1.0012 0.00281157 0)
(1.00089 0.00333244 0)
(1.00116 0.00358368 0)
(1.00172 0.00360313 0)
(1.00168 0.00377888 0)
(0.999966 -4.45086e-05 0)
(1.00009 -0.000664621 0)
(0.999575 -0.000694471 0)
(0.998944 0.000104573 0)
(0.999203 0.000446961 0)
(0.999829 -0.0001265 0)
(0.999398 0.000105613 0)
(0.999253 0.000377722 0)
(0.999176 0.000371 0)
(0.998997 0.00118791 0)
(0.99932 0.00198921 0)
(0.999805 0.00200675 0)
(1.00003 0.00247891 0)
(1.0006 0.00286804 0)
(1.00131 0.00283233 0)
(1.00133 0.00280896 0)
(1.00108 0.00326308 0)
(1.00127 0.00356483 0)
(1.00181 0.00361024 0)
(1.00183 0.00374397 0)
(0.99997 -4.45877e-05 0)
(1.00009 -0.000557986 0)
(0.999674 -0.000733363 0)
(0.999065 7.51342e-05 0)
(0.999246 0.000470234 0)
(0.999862 -0.000111991 0)
(0.999511 0.000140422 0)
(0.999341 0.000515774 0)
(0.999311 0.000534659 0)
(0.999216 0.00116211 0)
(0.999472 0.0019436 0)
(0.999923 0.00204653 0)
(1.00018 0.0024395 0)
(1.00071 0.00278004 0)
(1.00136 0.00281916 0)
(1.00146 0.00280241 0)
(1.00127 0.00319553 0)
(1.0014 0.00352125 0)
(1.0019 0.00360669 0)
(1.00197 0.00370921 0)
(0.999974 -4.8441e-05 0)
(1.00009 -0.000455336 0)
(0.999763 -0.000748662 0)
(0.999191 2.71933e-05 0)
(0.999291 0.00050825 0)
(0.999892 -7.43199e-05 0)
(0.999634 0.000150889 0)
(0.999443 0.000631152 0)
(0.999433 0.000707068 0)
(0.999418 0.00115718 0)
(0.999634 0.00188396 0)
(1.00005 0.00206379 0)
(1.00033 0.00241762 0)
(1.00082 0.0027058 0)
(1.00142 0.00279682 0)
(1.00158 0.00278928 0)
(1.00146 0.00312936 0)
(1.00155 0.00345929 0)
(1.00199 0.0035824 0)
(1.0021 0.00367169 0)
(0.999979 -5.33682e-05 0)
(1.00008 -0.000362327 0)
(0.999841 -0.000739 0)
(0.999322 -3.54944e-05 0)
(0.99934 0.000550542 0)
(0.999914 -8.94277e-07 0)
(0.999762 0.000145342 0)
(0.999562 0.000705376 0)
(0.999545 0.000877757 0)
(0.9996 0.00119036 0)
(0.999801 0.00182223 0)
(1.00018 0.0020515 0)
(1.00048 0.0023978 0)
(1.00094 0.00264822 0)
(1.00149 0.00277178 0)
(1.00169 0.00277434 0)
(1.00164 0.00306168 0)
(1.00171 0.00338648 0)
(1.0021 0.00353978 0)
(1.00222 0.00362191 0)
(0.999984 -5.93232e-05 0)
(1.00007 -0.00028059 0)
(0.999906 -0.000701632 0)
(0.999455 -0.000112673 0)
(0.999399 0.000581514 0)
(0.999928 0.000105381 0)
(0.999886 0.000144941 0)
(0.9997 0.000727066 0)
(0.999659 0.00102938 0)
(0.999759 0.00125687 0)
(0.999963 0.00177508 0)
(1.00032 0.00201889 0)
(1.00062 0.00237385 0)
(1.00106 0.00260332 0)
(1.00157 0.00274567 0)
(1.00181 0.00276119 0)
(1.00182 0.00299508 0)
(1.00188 0.00330058 0)
(1.00221 0.00348493 0)
(1.00235 0.00355565 0)
(0.999989 -6.27873e-05 0)
(1.00005 -0.000213821 0)
(0.999956 -0.000638766 0)
(0.999588 -0.000194395 0)
(0.99947 0.000591553 0)
(0.999934 0.000234232 0)
(0.999999 0.000165821 0)
(0.999854 0.000711444 0)
(0.99978 0.00115262 0)
(0.999899 0.00134519 0)
(1.00011 0.00175335 0)
(1.00047 0.00197285 0)
(1.00076 0.00233189 0)
(1.00118 0.00255944 0)
(1.00165 0.00271862 0)
(1.00191 0.00275058 0)
(1.00199 0.00294235 0)
(1.00206 0.0032047 0)
(1.00233 0.00341868 0)
(1.00247 0.00348311 0)
(0.999993 -6.40579e-05 0)
(1.00004 -0.000161481 0)
(0.999993 -0.000555331 0)
(0.999716 -0.000265892 0)
(0.999558 0.000569374 0)
(0.999938 0.00038091 0)
(1.00009 0.000225609 0)
(1.00002 0.000668013 0)
(0.999917 0.00122411 0)
(1.00003 0.00144674 0)
(1.00024 0.00176675 0)
(1.00061 0.00193608 0)
(1.00091 0.00227344 0)
(1.00131 0.00250711 0)
(1.00174 0.0026859 0)
(1.00201 0.00273292 0)
(1.00214 0.00290278 0)
(1.00223 0.00311124 0)
(1.00246 0.00333362 0)
(1.00259 0.00340939 0)
(0.999997 -6.11155e-05 0)
(1.00003 -0.000124702 0)
(1.00002 -0.00046083 0)
(0.999835 -0.000310986 0)
(0.999663 0.000512753 0)
(0.999948 0.000514377 0)
(1.00016 0.000335223 0)
(1.00018 0.000630892 0)
(1.00007 0.00123328 0)
(1.00015 0.00153408 0)
(1.00035 0.001809 0)
(1.00074 0.00191563 0)
(1.00106 0.00221333 0)
(1.00144 0.00244041 0)
(1.00184 0.00264621 0)
(1.00212 0.00270899 0)
(1.00227 0.00286903 0)
(1.00239 0.00303734 0)
(1.0026 0.00323825 0)
(1.00271 0.00332617 0)
(1 -5.29015e-05 0)
(1.00002 -0.000103283 0)
(1.00003 -0.000361669 0)
(0.99994 -0.000324079 0)
(0.999782 0.000436099 0)
(0.999973 0.000620827 0)
(1.00021 0.000477925 0)
(1.00032 0.000618181 0)
(1.00024 0.00119856 0)
(1.00028 0.00158363 0)
(1.00045 0.0018705 0)
(1.00084 0.00191871 0)
(1.00119 0.00216111 0)
(1.00158 0.00236362 0)
(1.00195 0.00258799 0)
(1.00222 0.00267491 0)
(1.0024 0.00282798 0)
(1.00254 0.00297338 0)
(1.00273 0.00314975 0)
(1.00283 0.00322982 0)
(1 -4.16613e-05 0)
(1.00001 -9.05294e-05 0)
(1.00004 -0.000263644 0)
(1.00003 -0.000301487 0)
(0.999911 0.000354438 0)
(1.00002 0.000685626 0)
(1.00024 0.000631648 0)
(1.00045 0.000644357 0)
(1.00042 0.00114416 0)
(1.00044 0.00157922 0)
(1.00054 0.0019226 0)
(1.00093 0.00195415 0)
(1.00131 0.00212604 0)
(1.00171 0.00229336 0)
(1.00206 0.00251447 0)
(1.00233 0.00262471 0)
(1.00252 0.00277945 0)
(1.00268 0.00290396 0)
(1.00285 0.0030713 0)
(1.00294 0.00313159 0)
(1 -2.63818e-05 0)
(1.00001 -8.25957e-05 0)
(1.00005 -0.000175184 0)
(1.0001 -0.00024285 0)
(1.00004 0.00028496 0)
(1.00009 0.000699318 0)
(1.00028 0.000774515 0)
(1.00054 0.000718901 0)
(1.00059 0.00109893 0)
(1.00061 0.00152859 0)
(1.00065 0.00194016 0)
(1.001 0.00199947 0)
(1.00141 0.00211576 0)
(1.00183 0.00223013 0)
(1.00218 0.00243583 0)
(1.00245 0.00255521 0)
(1.00264 0.00272257 0)
(1.00281 0.00282906 0)
(1.00296 0.00299156 0)
(1.00304 0.00304465 0)
(1 -9.43391e-06 0)
(1.00002 -7.41646e-05 0)
(1.00006 -9.64917e-05 0)
(1.00016 -0.000163592 0)
(1.00017 0.00023974 0)
(1.00018 0.000680532 0)
(1.00031 0.000888229 0)
(1.00061 0.000816944 0)
(1.00073 0.00108162 0)
(1.00078 0.0014544 0)
(1.00077 0.00191765 0)
(1.00107 0.00203325 0)
(1.00148 0.00213276 0)
(1.00194 0.00218558 0)
(1.00229 0.00235965 0)
(1.00257 0.00247231 0)
(1.00275 0.00264817 0)
(1.00294 0.00274704 0)
(1.00307 0.00289748 0)
(1.00313 0.00296149 0)
(1.00001 8.77634e-06 0)
(1.00002 -6.12707e-05 0)
(1.00008 -3.05475e-05 0)
(1.0002 -7.35697e-05 0)
(1.00028 0.00022248 0)
(1.00029 0.000642691 0)
(1.00037 0.000965684 0)
(1.00066 0.000921611 0)
(1.00085 0.00110141 0)
(1.00096 0.00138343 0)
(1.00092 0.00185049 0)
(1.00116 0.00203805 0)
(1.00153 0.00215139 0)
(1.00201 0.00216906 0)
(1.00239 0.00229582 0)
(1.00269 0.00238791 0)
(1.00287 0.0025615 0)
(1.00305 0.00265947 0)
(1.00318 0.00279409 0)
(1.0032 0.00287198 0)
(1.00001 2.63726e-05 0)
(1.00003 -4.24895e-05 0)
(1.0001 2.34157e-05 0)
(1.00024 1.82921e-05 0)
(1.00037 0.000236649 0)
(1.00041 0.000598741 0)
(1.00044 0.0010031 0)
(1.0007 0.00101862 0)
(1.00094 0.00115206 0)
(1.00111 0.00133967 0)
(1.00108 0.0017636 0)
(1.00126 0.0020058 0)
(1.00158 0.00215524 0)
(1.00207 0.00216402 0)
(1.00246 0.00225112 0)
(1.00279 0.00230626 0)
(1.00298 0.00246507 0)
(1.00317 0.00256205 0)
(1.00329 0.00268183 0)
(1.00328 0.00276763 0)
(1.00001 4.24517e-05 0)
(1.00004 -1.82045e-05 0)
(1.00013 6.6606e-05 0)
(1.00027 0.000109109 0)
(1.00045 0.000278447 0)
(1.00053 0.000562882 0)
(1.00053 0.00100476 0)
(1.00075 0.00109405 0)
(1.00101 0.00121735 0)
(1.00124 0.0013221 0)
(1.00123 0.00168411 0)
(1.00138 0.00193863 0)
(1.00165 0.00213913 0)
(1.00211 0.00215385 0)
(1.00251 0.0022237 0)
(1.00288 0.00224118 0)
(1.00309 0.00236805 0)
(1.00327 0.00245979 0)
(1.00339 0.00256266 0)
(1.00337 0.00264769 0)
(1.00001 5.63039e-05 0)
(1.00005 1.22916e-05 0)
(1.00016 0.000100295 0)
(1.00031 0.000190825 0)
(1.00052 0.000339953 0)
(1.00064 0.000547654 0)
(1.00063 0.000988418 0)
(1.00081 0.0011421 0)
(1.00106 0.00128491 0)
(1.00134 0.00133153 0)
(1.00137 0.00162185 0)
(1.00151 0.00185794 0)
(1.00172 0.00209086 0)
(1.00216 0.00213229 0)
(1.00255 0.0021944 0)
(1.00293 0.00219386 0)