/*--------------------------------*- C++ -*----------------------------------*\
| =========                 |                                                 |
| \\      /  F ield         | OpenFOAM: The Open Source CFD Toolbox           |
|  \\    /   O peration     | Version:  2506                                  |
|   \\  /    A nd           | Website:  www.openfoam.com                      |
|    \\/     M anipulation  |                                                 |
\*---------------------------------------------------------------------------*/
FoamFile
{
    version     2.0;
    format      ascii;
    arch        "LSB;label=32;scalar=64";
    class       volScalarField;
    location    "2.65";
    object      p;
}
// * * * * * * * * * * * * * * * * * * * * * * * * * * * * * * * * * * * * * //

dimensions      [0 2 -2 0 0 0 0];

internalField   nonuniform List<scalar> 
9600
(
-2.64948e-11
-0.000513638
-0.00213861
-0.000532943
0.00177805
0.00146584
-0.000464048
0.0007112
1.72912e-05
2.87575e-05
0.000795491
0.00266416
0.00293952
0.00317189
0.00441143
0.00532934
0.00728421
0.00818215
0.0113585
0.016863
-3.74907e-07
-0.00051828
-0.00212898
-0.000523586
0.00175782
0.0014144
-0.000445602
0.000708726
2.51155e-05
3.65032e-05
0.000788391
0.00266844
0.00293448
0.00316026
0.00440762
0.00530189
0.00729617
0.00814379
0.0115395
0.0164033
-1.87315e-06
-0.000523449
-0.00211598
-0.000516582
0.001725
0.0013662
-0.000431133
0.000704003
4.03545e-05
4.15191e-05
0.000785784
0.00267042
0.00292136
0.00314601
0.00439499
0.00527305
0.0073006
0.00810007
0.0116016
0.0157911
-4.37411e-06
-0.000528308
-0.0021007
-0.000512496
0.00169128
0.00132216
-0.000421982
0.000697716
6.24357e-05
4.24096e-05
0.000788084
0.00266597
0.00290689
0.00313317
0.00437873
0.00524229
0.00730386
0.00805154
0.0116081
0.0152756
-7.96939e-06
-0.000532561
-0.00208108
-0.000510138
0.00165808
0.00128211
-0.000415291
0.000690483
9.08323e-05
3.92533e-05
0.000793785
0.00265742
0.00289334
0.00311892
0.00436324
0.00520952
0.00730952
0.00799803
0.0115881
0.0148133
-1.2624e-05
-0.000535515
-0.00205619
-0.00051007
0.001626
0.00124672
-0.000409099
0.000682914
0.000124057
3.31305e-05
0.000801522
0.00264702
0.00287991
0.00310275
0.00435044
0.005176
0.00731425
0.00794214
0.0115364
0.014381
-1.803e-05
-0.000536885
-0.00202647
-0.000511935
0.0015969
0.00121532
-0.000402085
0.000675576
0.000160593
2.58077e-05
0.000810143
0.00263622
0.00286656
0.00308508
0.004341
0.00514214
0.00731492
0.00788638
0.011447
0.0139715
-2.38192e-05
-0.000536858
-0.00199286
-0.000514519
0.0015712
0.00118632
-0.000393395
0.000668681
0.000199468
1.87243e-05
0.000819045
0.00262607
0.00285335
0.00306584
0.00433451
0.00510844
0.00730939
0.00783169
0.0113174
0.0135817
-2.971e-05
-0.000535818
-0.00195633
-0.000516949
0.00154776
0.00115834
-0.000382778
0.000662131
0.000240161
1.26731e-05
0.000827937
0.00261688
0.00284005
0.00304492
0.00432979
0.00507581
0.00729539
0.00777825
0.0111475
0.013208
-3.55462e-05
-0.000534155
-0.00191771
-0.000518936
0.00152511
0.00113038
-0.000370441
0.000655658
0.000282291
7.9695e-06
0.000836504
0.00260859
0.00282658
0.00302227
0.00432534
0.0050451
0.00727048
0.0077255
0.0109397
0.0128458
-4.12728e-05
-0.0005322
-0.00187755
-0.00052047
0.00150207
0.00110183
-0.00035675
0.000648925
0.000325459
4.66974e-06
0.000844383
0.00260131
0.00281279
0.0029978
0.00431967
0.00501662
0.00723237
0.00767236
0.0106978
0.0124893
-4.68816e-05
-0.000530194
-0.00183622
-0.000521606
0.00147796
0.00107232
-0.000342039
0.000641638
0.000369273
2.77362e-06
0.000851197
0.0025951
0.00279834
0.0029717
0.00431112
0.00499042
0.00717966
0.007617
0.0104248
0.0121318
-5.23712e-05
-0.000528282
-0.0017939
-0.000522404
0.00145243
0.00104168
-0.000326546
0.000633612
0.000413353
2.36472e-06
0.000856477
0.00258996
0.00278289
0.00294424
0.00429811
0.00496647
0.00711194
0.00755664
0.0101075
0.0117685
-5.77252e-05
-0.00052655
-0.0017507
-0.000522901
0.00142536
0.00100987
-0.000310428
0.000624799
0.000457322
3.63697e-06
0.000859671
0.00258587
0.0027661
0.00291556
0.00427988
0.00494462
0.00702943
0.00748829
0.00978651
0.0113945
-6.29095e-05
-0.000525072
-0.00170667
-0.000523115
0.00139677
0.000976952
-0.000293831
0.00061525
0.000500798
6.86075e-06
0.000860225
0.0025829
0.00274759
0.00288566
0.00425628
0.00493747
0.00693318
0.0074087
0.00945361
0.01101
-6.78828e-05
-0.00052391
-0.00166184
-0.000523046
0.00136672
0.000943059
-0.000276916
0.000605085
0.000543382
1.23808e-05
0.000857627
0.00258105
0.00272713
0.00285436
0.004227
0.00491305
0.00682492
0.00731507
0.00911098
0.0106152
-7.26019e-05
-0.000523115
-0.00161628
-0.000522681
0.00133523
0.000908369
-0.000259837
0.000594486
0.000584625
2.058e-05
0.000851455
0.0025802
0.00270467
0.00282131
0.00419232
0.00488431
0.00670587
0.00720493
0.00876085
0.0102109
-7.70251e-05
-0.000522725
-0.00157005
-0.000522001
0.0013023
0.00087309
-0.000242784
0.000583698
0.000624027
3.17851e-05
0.000841344
0.00258016
0.00268035
0.00278589
0.00415317
0.0048493
0.00657607
0.00707759
0.00840452
0.00979755
-8.1112e-05
-0.000522766
-0.00152324
-0.00052097
0.00126789
0.000837468
-0.000226028
0.000572997
0.000661111
4.62087e-05
0.000827091
0.00258052
0.00265462
0.00274698
0.00411056
0.00480644
0.0064347
0.00693294
0.00804351
0.0093754
-8.48316e-05
-0.000523237
-0.00147598
-0.000519524
0.00123191
0.000801781
-0.000209865
0.000562611
0.000695476
6.40149e-05
0.000808633
0.00258049
0.00262817
0.00270305
0.00406526
0.00475521
0.00628058
0.0067796
0.00767982
0.00894398
-8.81664e-05
-0.000524125
-0.00142838
-0.00051755
0.00119425
0.000766295
-0.000194564
0.000552701
0.000726731
8.52719e-05
0.000786041
0.00257913
0.00260216
0.00265254
0.00401714
0.00469608
0.00611258
0.00661578
0.00731567
0.00850217
-9.1105e-05
-0.000525398
-0.00138065
-0.000514897
0.00115477
0.000731275
-0.000180395
0.000543369
0.000754543
0.00010979
0.00075988
0.00257535
0.00257768
0.00259407
0.0039653
0.00463058
0.00592918
0.0064405
0.00695476
0.00804933
-9.36516e-05
-0.000526971
-0.00133301
-0.000511402
0.00111331
0.000696983
-0.000167618
0.000534635
0.000778736
0.000137151
0.000731142
0.0025677
0.00255536
0.00252718
0.00390837
0.00456059
0.00572926
0.00625228
0.0066015
0.0075858
-9.58479e-05
-0.000528695
-0.00128572
-0.000506894
0.00106972
0.000663634
-0.000156416
0.000526441
0.000799232
0.000166658
0.000701079
0.00255469
0.00253567
0.00245213
0.00384401
0.0044878
0.00551308
0.00604879
0.0062601
0.00711348
-9.77592e-05
-0.000530383
-0.00123903
-0.000501219
0.00102392
0.000631404
-0.00014694
0.000518539
0.000816262
0.000197399
0.000670811
0.00253514
0.0025188
0.00236926
0.00376931
0.00441372
0.00528248
0.00582703
0.00593382
0.00663634
-9.94841e-05
-0.000531787
-0.00119323
-0.000494275
0.000975782
0.000600425
-0.000139151
0.000510412
0.000830343
0.000228486
0.000640615
0.00250815
0.00250456
0.00227925
0.00368166
0.00433913
0.00504101
0.00558386
0.00562399
0.00616058
-0.00010117
-0.000532595
-0.00114858
-0.000485966
0.000925183
0.000570664
-0.000132716
0.000501431
0.000841903
0.000259221
0.000611055
0.00247317
0.00249217
0.00218343
0.00357857
0.00426328
0.00479343
0.00531687
0.00533002
0.00569528
-0.000102981
-0.000532466
-0.00110534
-0.000476254
0.000872217
0.000541946
-0.000127235
0.000490764
0.000851204
0.000289214
0.000582501
0.00242979
0.00248049
0.00208313
0.0034579
0.00418481
0.00454522
0.00502451
0.00504837
0.00525203
-0.000105107
-0.000531032
-0.00106375
-0.000465251
0.000817117
0.000513965
-0.000122024
0.000477659
0.000858173
0.000318163
0.000554653
0.00237771
0.00246834
0.00197976
0.00331813
0.00410178
0.00430231
0.00470707
0.00477124
0.00484281
-0.000107757
-0.000527918
-0.00102396
-0.000453088
0.000760067
0.000486138
-0.000116054
0.000461848
0.000862392
0.000345859
0.000526222
0.00231648
0.00245445
0.00187496
0.00315821
0.00401062
0.0040702
0.00436825
0.00448733
0.0044756
-0.000111167
-0.000522792
-0.00098608
-0.00043999
0.000701656
0.000457635
-0.00010871
0.000443235
0.000863126
0.000372314
0.000496487
0.00224552
0.00243752
0.00177048
0.00297808
0.00390704
0.00385298
0.0040153
0.00418405
0.00414782
-0.000115578
-0.000515358
-0.000950049
-0.00042648
0.000642731
0.000427598
-9.97183e-05
0.000422164
0.000859257
0.000397259
0.000466001
0.00216423
0.00241595
0.00166836
0.00277873
0.00378691
0.0036524
0.00365776
0.00385321
0.00384724
-0.000121208
-0.000505277
-0.000915741
-0.000413358
0.000584238
0.000395398
-8.89732e-05
0.000399684
0.000849697
0.000420023
0.000434826
0.00207227
0.00238791
0.00156995
0.00256176
0.00364671
0.00346749
0.00330559
0.00349549
0.00355646
-0.000128225
-0.00049236
-0.000882843
-0.000401539
0.000527324
0.000360794
-7.74768e-05
0.00037707
0.000834
0.000439454
0.000402679
0.0019695
0.00235164
0.00147629
0.00232948
0.00348357
0.003296
0.00296679
0.00311738
0.00325725
-0.000136779
-0.000476716
-0.000850534
-0.00039217
0.000472702
0.000324089
-6.70816e-05
0.000355181
0.000812319
0.000454119
0.000369183
0.00185571
0.00230517
0.0013891
0.00208556
0.00329489
0.00313474
0.00264632
0.00272665
0.002939
-0.000146997
-0.000458669
-0.000817651
-0.000385942
0.000420507
0.00028625
-5.93918e-05
0.000334192
0.000785048
0.000462515
0.000333564
0.00173115
0.00224649
0.00130952
0.00183456
0.00307869
0.00297967
0.00234766
0.00232988
0.00259975
-0.000158827
-0.000438901
-0.000783092
-0.00038323
0.000370027
0.000248477
-5.49849e-05
0.00031355
0.000752298
0.000463612
0.000295184
0.0015966
0.00217404
0.00123759
0.00158121
0.00283381
0.00282616
0.00207485
0.00193224
0.00224014
-0.000172054
-0.000418534
-0.000745888
-0.000383212
0.000319778
0.000211202
-5.39648e-05
0.000292232
0.000714153
0.000456588
0.000253309
0.00145321
0.00208662
0.00117314
0.0013311
0.00255976
0.00266691
0.00183167
0.00154029
0.00186067
-0.000186421
-0.000398686
-0.000705434
-0.000384406
0.00026838
0.000174081
-5.68217e-05
0.000268891
0.000671232
0.000441748
0.000208801
0.00130258
0.00198338
0.00111473
0.0010896
0.00225794
0.00249228
0.00161931
0.00116389
0.00146206
-0.000201567
-0.000380112
-0.000661704
-0.000385457
0.00021505
0.000136117
-6.44657e-05
0.000242114
0.000624369
0.000420571
0.000162288
0.00114674
0.00186382
0.00105858
0.000861031
0.00193318
0.00229287
0.00143368
0.000814142
0.0010482
-0.000216817
-0.000363565
-0.000615474
-0.000385146
0.000159544
9.61197e-05
-7.783e-05
0.000210925
0.000573945
0.000393353
0.000114651
0.00098756
0.00172718
0.00100055
0.000648499
0.00159221
0.00206215
0.00126578
0.000500741
0.000628976
-0.00023132
-0.000349605
-0.000568197
-0.000382033
0.00010241
5.32051e-05
-9.76105e-05
0.000173401
0.000519305
0.000358663
6.74756e-05
0.00082661
0.00157323
0.000936799
0.000453716
0.00124248
0.00179788
0.00110411
0.000228374
0.000218516
-0.000244491
-0.000338358
-0.000521566
-0.000374811
4.47658e-05
6.33944e-06
-0.000124204
0.000126664
0.000458163
0.000324776
2.35056e-05
0.000666298
0.00140293
0.000863218
0.000277365
0.000891835
0.00150071
0.000937202
-4.27935e-06
-0.000168387
-0.000256124
-0.000329396
-0.000476967
-0.000361898
-1.19396e-05
-4.50177e-05
-0.000158725
6.78949e-05
0.000388773
0.000290689
-1.63401e-05
0.000508949
0.00121788
0.000775925
0.000118635
0.000548607
0.00117342
0.000754984
-0.000202918
-0.000519331
-0.000265875
-0.000322509
-0.000435903
-0.000346022
-6.67519e-05
-0.000100137
-0.000203982
-2.38197e-06
0.000312639
0.000256811
-5.26599e-05
0.000355863
0.00102048
0.000671511
-2.59042e-05
0.00022073
0.000821934
0.000548699
-0.000376808
-0.000826783
-0.000273061
-0.0003177
-0.000400453
-0.000332397
-0.000121956
-0.000159679
-0.000249039
-7.16471e-05
0.000230653
0.000209721
-9.25419e-05
0.00020716
0.000813276
0.000547592
-0.000161534
-8.62775e-05
0.000455341
0.000312353
-0.000538069
-0.00108883
-0.000277582
-0.000314928
-0.000372446
-0.000320952
-0.000175165
-0.000221209
-0.000293731
-0.000138898
0.0001423
0.000148643
-0.000139295
6.24016e-05
0.000598766
0.000404323
-0.000292802
-0.000369691
8.38145e-05
4.51018e-05
-0.000700008
-0.00131021
-0.000279921
-0.000313675
-0.000352426
-0.000312175
-0.000224814
-0.000284311
-0.000340774
-0.000205978
4.82085e-05
7.3641e-05
-0.000194475
-7.82038e-05
0.00038124
0.000243752
-0.00042389
-0.000629833
-0.000283697
-0.000248877
-0.000873579
-0.00150032
-0.000280352
-0.000313368
-0.000340377
-0.000303167
-0.000270956
-0.000348125
-0.000391918
-0.000273402
-4.98296e-05
-1.34366e-05
-0.000259385
-0.00021594
0.000163609
6.8099e-05
-0.000559359
-0.000868675
-0.000639586
-0.000563014
-0.00106564
-0.00167128
-0.000279235
-0.000313538
-0.000336223
-0.000302151
-0.000313749
-0.000412082
-0.000448365
-0.000342491
-0.000149457
-0.000109493
-0.000334233
-0.000352987
-5.40393e-05
-0.000120911
-0.000702172
-0.00108888
-0.00097748
-0.00088972
-0.001279
-0.00183523
-0.000277169
-0.000313718
-0.000339278
-0.000310589
-0.000354135
-0.000475203
-0.000510171
-0.000413984
-0.000249421
-0.000213222
-0.00041975
-0.000490273
-0.00027097
-0.000321518
-0.000853337
-0.00129387
-0.00129366
-0.00122086
-0.00151304
-0.00200132
-0.00027478
-0.000313804
-0.00034862
-0.000327605
-0.000393179
-0.000536053
-0.000576609
-0.000489787
-0.0003506
-0.000323129
-0.000515452
-0.00062758
-0.000485001
-0.000531774
-0.00101414
-0.00148794
-0.00158785
-0.00154936
-0.00176483
-0.00217502
-0.00027281
-0.000314112
-0.00036301
-0.000353171
-0.000432343
-0.000594308
-0.000647307
-0.000571682
-0.000453891
-0.000436735
-0.000619363
-0.000766009
-0.000695637
-0.000749312
-0.00118573
-0.00167509
-0.00186064
-0.00186872
-0.00202921
-0.00235874
-0.000272244
-0.000315226
-0.000380772
-0.000386258
-0.000473446
-0.000650204
-0.000721143
-0.000660171
-0.00056029
-0.000553612
-0.000729556
-0.000906034
-0.000903052
-0.000971344
-0.0013671
-0.00185839
-0.00211303
-0.00217403
-0.00230117
-0.00255391
-0.000273878
-0.000317782
-0.000400552
-0.000425954
-0.00051824
-0.000704619
-0.000796635
-0.000754721
-0.000672188
-0.000674725
-0.000845327
-0.00104557
-0.0011054
-0.00119626
-0.00155726
-0.00204104
-0.00234855
-0.00246283
-0.00257587
-0.0027605
-0.000278232
-0.000322611
-0.000421498
-0.000470673
-0.000568186
-0.000758958
-0.00087275
-0.000854179
-0.00078958
-0.000800895
-0.000967551
-0.00118451
-0.00130019
-0.00142162
-0.00175588
-0.00222489
-0.00257084
-0.00273335
-0.00284696
-0.00297694
-0.000285599
-0.000330458
-0.000443482
-0.000519083
-0.000624106
-0.000815043
-0.000947837
-0.000956848
-0.000912412
-0.000932356
-0.00109597
-0.00132531
-0.00148703
-0.00164276
-0.00196079
-0.00241039
-0.00278238
-0.00298623
-0.00310909
-0.00320088
-0.000296106
-0.000341869
-0.000466927
-0.00056989
-0.000686079
-0.000874753
-0.00102255
-0.00106057
-0.00104015
-0.0010697
-0.00122985
-0.00146824
-0.00166796
-0.0018566
-0.0021676
-0.00259809
-0.00298554
-0.00322452
-0.00335969
-0.0034273
-0.00030984
-0.00035735
-0.000492598
-0.000621865
-0.000753461
-0.000939684
-0.001098
-0.00116381
-0.0011703
-0.00121242
-0.00137
-0.00161238
-0.00184323
-0.0020633
-0.00237286
-0.00278722
-0.00318205
-0.00344983
-0.00359816
-0.00365028
-0.000326894
-0.000377214
-0.000521444
-0.000674995
-0.000825161
-0.00101081
-0.00117578
-0.00126648
-0.00130002
-0.001358
-0.00151676
-0.00175952
-0.00201261
-0.0022624
-0.00257501
-0.00297515
-0.00337199
-0.00366204
-0.00382476
-0.00386701
-0.000347478
-0.000401625
-0.000554319
-0.000729547
-0.000899807
-0.0010881
-0.00125763
-0.00136899
-0.00142862
-0.00150386
-0.0016668
-0.00191131
-0.0021783
-0.00245212
-0.00277228
-0.00316034
-0.00355517
-0.00386172
-0.00403915
-0.00407662
-0.000371892
-0.000430689
-0.00059183
-0.000785937
-0.00097632
-0.00117097
-0.0013446
-0.00147203
-0.0015559
-0.00164919
-0.00181723
-0.00206462
-0.00234259
-0.00263281
-0.00296174
-0.00334242
-0.00373201
-0.00404976
-0.00424034
-0.00427747
-0.000400505
-0.000464503
-0.00063431
-0.00084493
-0.0010543
-0.00125825
-0.00143688
-0.00157688
-0.00168141
-0.00179296
-0.00196759
-0.00221621
-0.00250379
-0.00280676
-0.00314156
-0.00351876
-0.00390234
-0.00422613
-0.00442775
-0.00446733
-0.000433728
-0.000502847
-0.000681807
-0.000907365
-0.0011341
-0.00134869
-0.0015338
-0.00168478
-0.00180572
-0.00193324
-0.00211632
-0.00236584
-0.00265872
-0.00297333
-0.00331234
-0.00368591
-0.00406451
-0.00439058
-0.00460126
-0.00464455
-0.000471931
-0.000546073
-0.000733854
-0.000973627
-0.00121628
-0.00144167
-0.00163434
-0.00179549
-0.00193018
-0.00207048
-0.00226067
-0.00251238
-0.00280671
-0.00312845
-0.00347284
-0.00384231
-0.00421578
-0.00454249
-0.0047605
-0.00480847
-0.000515459
-0.000594416
-0.000790648
-0.00104376
-0.00130129
-0.00153751
-0.00173801
-0.00190805
-0.00205434
-0.00220528
-0.00239994
-0.00265279
-0.00294778
-0.00327093
-0.00361942
-0.00398682
-0.00435424
-0.00468048
-0.00490401
-0.00495806
-0.000564519
-0.000648196
-0.000852361
-0.00111775
-0.00138925
-0.00163632
-0.00184469
-0.00202245
-0.00217758
-0.0023368
-0.00253406
-0.00278461
-0.00307894
-0.00340122
-0.00374937
-0.00411624
-0.00447821
-0.00480227
-0.00503032
-0.00509122
-0.000619218
-0.000707462
-0.00091927
-0.0011959
-0.0014804
-0.00173799
-0.00195386
-0.0021386
-0.00230052
-0.00246476
-0.00266267
-0.00290755
-0.00319651
-0.00351674
-0.00386085
-0.00422512
-0.00458353
-0.00490402
-0.00513546
-0.00520391
-0.000679896
-0.000772379
-0.000991302
-0.00127834
-0.00157494
-0.00184288
-0.00206578
-0.00225618
-0.00242327
-0.00258959
-0.00278492
-0.00302142
-0.00329898
-0.00361222
-0.00395036
-0.00430801
-0.00466337
-0.00498072
-0.00521414
-0.00529055
-0.000746643
-0.000843054
-0.00106873
-0.00136514
-0.00167274
-0.00195119
-0.00218118
-0.00237585
-0.00254631
-0.00271252
-0.00290145
-0.00312544
-0.00338547
-0.00368258
-0.00400857
-0.00435608
-0.00470692
-0.00502408
-0.00526114
-0.00534776
-0.000819789
-0.000919429
-0.00115166
-0.00145598
-0.00177404
-0.00206334
-0.00230079
-0.0024986
-0.00267021
-0.00283422
-0.00301418
-0.00322144
-0.00345733
-0.00372605
-0.00402603
-0.00435202
-0.00469112
-0.0050107
-0.00525992
-0.00536611
-0.000899947
-0.00100292
-0.00123881
-0.00155039
-0.00187891
-0.00217942
-0.00242571
-0.00262725
-0.00279775
-0.00295555
-0.00312227
-0.00330783
-0.00351434
-0.0037457
-0.0040041
-0.00428819
-0.00458959
-0.00488927
-0.00514462
-0.00528473
-0.000985998
-0.00109091
-0.00133134
-0.00165065
-0.00198812
-0.00229911
-0.00255567
-0.00276502
-0.00293798
-0.00308479
-0.00322875
-0.00338115
-0.00354733
-0.00373657
-0.00395221
-0.00419212
-0.00444503
-0.00469178
-0.00489728
-0.00500483
-0.00107655
-0.00118277
-0.00143041
-0.00175711
-0.00210062
-0.00242106
-0.00269027
-0.00291321
-0.00310053
-0.00325237
-0.00336894
-0.00344762
-0.00349444
-0.00354482
-0.00363795
-0.00381
-0.00407827
-0.00442109
-0.00477752
-0.00504592
-0.00117404
-0.00128483
-0.0015353
-0.00186313
-0.00220857
-0.00253813
-0.00282402
-0.00306797
-0.00327932
-0.00346936
-0.00366136
-0.00383557
-0.00389606
-0.00376464
-0.00350145
-0.00324059
-0.00304336
-0.0029109
-0.00284558
-0.002885
-0.00128118
-0.00139751
-0.00164784
-0.00197173
-0.0023114
-0.00263991
-0.00293593
-0.00320437
-0.00344341
-0.00360433
-0.00361504
-0.00347913
-0.00329943
-0.00318332
-0.00315244
-0.00318405
-0.00324877
-0.0033132
-0.00337936
-0.00349349
-0.00139744
-0.00150102
-0.00175694
-0.00209473
-0.00245991
-0.00282428
-0.00313264
-0.00332155
-0.00336741
-0.00333847
-0.00332002
-0.00333937
-0.00337065
-0.00338996
-0.00335228
-0.00324328
-0.00308176
-0.00290215
-0.00276314
-0.00274093
-0.00155029
-0.00165061
-0.00182897
-0.00207924
-0.00237787
-0.00268571
-0.00294769
-0.00313015
-0.00324924
-0.00331605
-0.0033632
-0.00342365
-0.00348218
-0.0035733
-0.00372036
-0.00389795
-0.00408849
-0.00425799
-0.00436208
-0.00436332
-0.00169246
-0.00181753
-0.00197183
-0.00217902
-0.00243641
-0.00271259
-0.00296639
-0.00316245
-0.00329704
-0.00338039
-0.00340973
-0.00342729
-0.00342423
-0.00337072
-0.00328447
-0.00316344
-0.00301947
-0.00288192
-0.00280894
-0.00287941
-0.0017305
-0.00185142
-0.00205572
-0.00231193
-0.00256323
-0.00278696
-0.00296431
-0.00307603
-0.00314882
-0.0032206
-0.00327492
-0.00332696
-0.00339274
-0.00343927
-0.00346788
-0.0034825
-0.00348281
-0.00348482
-0.00351963
-0.00365421
0.0254454
0.0166515
0.00603984
-0.00124467
-0.00390658
-0.00371732
-0.00313988
-0.00319237
-0.00373406
-0.00430443
-0.00467269
-0.00488433
-0.00505383
-0.00524579
-0.0055098
-0.00586623
-0.00619859
-0.0063734
-0.00647298
-0.00666039
-0.00694902
-0.00726423
-0.00754448
-0.00776768
-0.00799509
-0.00830162
-0.00865706
-0.00897763
-0.00924373
-0.00949574
-0.00975625
-0.0100055
-0.0102278
-0.0104471
-0.0106958
-0.0109615
-0.0112168
-0.0114803
-0.0117891
-0.0121256
-0.0124407
-0.0127323
-0.013035
-0.0133466
-0.0136361
-0.0139114
-0.0142056
-0.0145174
-0.0148264
-0.0151394
-0.0154832
-0.0158386
-0.0161739
-0.0165152
-0.0168744
-0.017219
-0.0175624
-0.0179232
-0.0182861
-0.0186567
-0.0190438
-0.0194356
-0.0198295
-0.0202288
-0.0206284
-0.0210324
-0.02145
-0.0218769
-0.0223095
-0.022746
-0.0231852
-0.0236297
-0.0240854
-0.0245506
-0.0250232
-0.0255007
-0.0259836
-0.0264724
-0.0269702
-0.0274779
-0.0279957
-0.0285187
-0.0290495
-0.0295881
-0.0301379
-0.0306946
-0.0312637
-0.0318401
-0.0324285
-0.0330228
-0.0336301
-0.0342453
-0.0348748
-0.0355118
-0.0361631
-0.0368221
-0.0375006
-0.0381875
-0.0388299
-0.0395016
0.0239854
0.0164823
0.00612991
-0.00111947
-0.0038256
-0.0036731
-0.00311054
-0.00317289
-0.0037213
-0.00429547
-0.00466575
-0.00487848
-0.00504856
-0.00524074
-0.00550495
-0.00586191
-0.00619503
-0.00637027
-0.00646991
-0.00665746
-0.00694638
-0.00726192
-0.00754249
-0.00776585
-0.00799329
-0.00829989
-0.00865552
-0.00897625
-0.00924243
-0.00949449
-0.00975508
-0.0100044
-0.0102268
-0.0104461
-0.0106948
-0.0109606
-0.0112159
-0.0114795
-0.0117883
-0.0121249
-0.01244
-0.0127316
-0.0130343
-0.013346
-0.0136355
-0.0139109
-0.0142051
-0.0145169
-0.014826
-0.015139
-0.0154827
-0.0158382
-0.0161735
-0.0165148
-0.0168741
-0.0172186
-0.0175621
-0.0179229
-0.0182858
-0.0186564
-0.0190435
-0.0194354
-0.0198292
-0.0202285
-0.0206282
-0.0210322
-0.0214498
-0.0218767
-0.0223092
-0.0227458
-0.0231851
-0.0236295
-0.0240852
-0.0245505
-0.025023
-0.0255005
-0.0259835
-0.0264722
-0.02697
-0.0274778
-0.0279956
-0.0285186
-0.0290493
-0.029588
-0.0301378
-0.0306945
-0.0312636
-0.03184
-0.0324284
-0.0330227
-0.03363
-0.0342452
-0.0348747
-0.0355117
-0.0361631
-0.036822
-0.0375006
-0.0381875
-0.0388298
-0.0395016
0.0228356
0.016403
0.00634903
-0.000876872
-0.00369362
-0.00362351
-0.00308452
-0.00315089
-0.00370296
-0.00428128
-0.00465511
-0.00487075
-0.005043
-0.00523634
-0.00550082
-0.00585791
-0.00619144
-0.00636707
-0.00646694
-0.00665473
-0.0069439
-0.0072597
-0.00754054
-0.00776409
-0.0079916
-0.00829835
-0.00865418
-0.00897505
-0.00924129
-0.0094934
-0.00975406
-0.0100035
-0.0102258
-0.0104452
-0.010694
-0.0109598
-0.0112152
-0.0114788
-0.0117876
-0.0121243
-0.0124394
-0.0127311
-0.0130338
-0.0133455
-0.0136351
-0.0139104
-0.0142046
-0.0145165
-0.0148256
-0.0151386
-0.0154824
-0.0158378
-0.0161732
-0.0165145
-0.0168738
-0.0172183
-0.0175618
-0.0179226
-0.0182855
-0.0186561
-0.0190433
-0.0194352
-0.019829
-0.0202283
-0.020628
-0.021032
-0.0214496
-0.0218765
-0.0223091
-0.0227457
-0.0231849
-0.0236293
-0.0240851
-0.0245503
-0.0250229
-0.0255004
-0.0259834
-0.0264721
-0.0269699
-0.0274777
-0.0279955
-0.0285185
-0.0290492
-0.0295879
-0.0301377
-0.0306944
-0.0312635
-0.0318399
-0.0324283
-0.0330226
-0.0336299
-0.0342451
-0.0348746
-0.0355116
-0.036163
-0.0368219
-0.0375005
-0.0381874
-0.0388298
-0.0395016
0.0217788
0.0162905
0.00660196
-0.000584465
-0.00352465
-0.00356172
-0.00305135
-0.00311968
-0.00367484
-0.00425797
-0.00463659
-0.00485723
-0.00503436
-0.00523115
-0.00549668
-0.00585324
-0.00618643
-0.00636266
-0.00646354
-0.00665194
-0.00694107
-0.00725673
-0.00753779
-0.00776178
-0.00798964
-0.00829662
-0.00865262
-0.00897365
-0.00924005
-0.00949227
-0.00975299
-0.0100024
-0.0102248
-0.0104443
-0.0106931
-0.010959
-0.0112144
-0.011478
-0.0117869
-0.0121236
-0.0124389
-0.0127305
-0.0130332
-0.013345
-0.0136346
-0.0139099
-0.0142041
-0.014516
-0.0148251
-0.0151381
-0.015482
-0.0158375
-0.0161728
-0.0165142
-0.0168735
-0.017218
-0.0175615
-0.0179224
-0.0182853
-0.0186559
-0.0190431
-0.0194349
-0.0198288
-0.0202281
-0.0206278
-0.0210318
-0.0214494
-0.0218763
-0.0223089
-0.0227455
-0.0231847
-0.0236292
-0.0240849
-0.0245502
-0.0250227
-0.0255002
-0.0259832
-0.0264719
-0.0269698
-0.0274775
-0.0279954
-0.0285184
-0.0290491
-0.0295878
-0.0301376
-0.0306943
-0.0312634
-0.0318399
-0.0324282
-0.0330226
-0.0336298
-0.034245
-0.0348745
-0.0355116
-0.0361629
-0.0368219
-0.0375004
-0.0381874
-0.0388298
-0.0395017
0.0207046
0.0160979
0.00684784
-0.000278574
-0.00334183
-0.00349465
-0.00301545
-0.00308252
-0.00363811
-0.00422517
-0.00460885
-0.0048359
-0.0050205
-0.00522365
-0.00549175
-0.00584718
-0.00617898
-0.00635617
-0.00645942
-0.00664919
-0.00693795
-0.00725272
-0.00753371
-0.00775846
-0.00798707
-0.0082943
-0.00865034
-0.00897162
-0.00923848
-0.009491
-0.00975173
-0.0100011
-0.0102236
-0.0104431
-0.010692
-0.0109579
-0.0112134
-0.011477
-0.0117861
-0.0121229
-0.0124382
-0.0127298
-0.0130326
-0.0133444
-0.013634
-0.0139093
-0.0142036
-0.0145155
-0.0148246
-0.0151377
-0.0154815
-0.0158371
-0.0161724
-0.0165138
-0.0168731
-0.0172177
-0.0175612
-0.017922
-0.018285
-0.0186556
-0.0190428
-0.0194347
-0.0198285
-0.0202279
-0.0206276
-0.0210316
-0.0214492
-0.0218761
-0.0223087
-0.0227453
-0.0231846
-0.023629
-0.0240847
-0.02455
-0.0250226
-0.0255001
-0.0259831
-0.0264718
-0.0269696
-0.0274774
-0.0279952
-0.0285182
-0.029049
-0.0295877
-0.0301375
-0.0306942
-0.0312633
-0.0318398
-0.0324281
-0.0330225
-0.0336297
-0.0342449
-0.0348744
-0.0355115
-0.0361628
-0.0368218
-0.0375003
-0.0381873
-0.0388298
-0.0395019
0.0196201
0.0158327
0.00708721
3.82934e-05
-0.00314839
-0.00342422
-0.00298021
-0.00304397
-0.00359745
-0.00418712
-0.00457508
-0.00480852
-0.00500176
-0.00521327
-0.00548525
-0.00583919
-0.00616874
-0.00634734
-0.00645442
-0.00664651
-0.00693469
-0.00724779
-0.00752832
-0.00775416
-0.00798391
-0.0082912
-0.00864687
-0.00896846
-0.00923625
-0.00948942
-0.00975018
-0.00999948
-0.0102221
-0.0104419
-0.0106907
-0.0109566
-0.0112121
-0.0114759
-0.011785
-0.0121219
-0.0124373
-0.0127291
-0.0130319
-0.0133437
-0.0136333
-0.0139087
-0.0142029
-0.0145149
-0.014824
-0.0151371
-0.015481
-0.0158366
-0.016172
-0.0165133
-0.0168727
-0.0172173
-0.0175608
-0.0179217
-0.0182846
-0.0186552
-0.0190425
-0.0194344
-0.0198282
-0.0202276
-0.0206273
-0.0210313
-0.0214489
-0.0218759
-0.0223085
-0.0227451
-0.0231844
-0.0236288
-0.0240845
-0.0245498
-0.0250224
-0.0254999
-0.0259829
-0.0264717
-0.0269695
-0.0274773
-0.0279951
-0.0285181
-0.0290489
-0.0295876
-0.0301374
-0.0306941
-0.0312632
-0.0318397
-0.032428
-0.0330224
-0.0336296
-0.0342448
-0.0348744
-0.0355114
-0.0361628
-0.0368217
-0.0375003
-0.0381873
-0.0388298
-0.0395022
0.0185461
0.0155086
0.00732125
0.00036583
-0.00294447
-0.00335039
-0.00294638
-0.0030056
-0.00355491
-0.00414654
-0.00453844
-0.00477789
-0.00497988
-0.00520049
-0.00547695
-0.00582918
-0.00615607
-0.00633654
-0.00644861
-0.0066438
-0.00693129
-0.00724216
-0.00752199
-0.00774929
-0.0079805
-0.00828746
-0.00864205
-0.00896379
-0.00923297
-0.00948726
-0.00974814
-0.00999736
-0.0102204
-0.0104406
-0.0106894
-0.010955
-0.0112105
-0.0114745
-0.0117837
-0.0121206
-0.0124362
-0.0127282
-0.0130311
-0.0133428
-0.0136325
-0.0139079
-0.0142022
-0.0145141
-0.0148233
-0.0151364
-0.0154804
-0.015836
-0.0161715
-0.0165128
-0.0168723
-0.0172169
-0.0175603
-0.0179213
-0.0182842
-0.0186548
-0.0190421
-0.019434
-0.0198279
-0.0202273
-0.020627
-0.021031
-0.0214486
-0.0218756
-0.0223082
-0.0227449
-0.0231841
-0.0236286
-0.0240843
-0.0245496
-0.0250222
-0.0254998
-0.0259828
-0.0264715
-0.0269693
-0.0274771
-0.027995
-0.028518
-0.0290487
-0.0295874
-0.0301373
-0.030694
-0.0312631
-0.0318395
-0.0324279
-0.0330223
-0.0336295
-0.0342447
-0.0348743
-0.0355113
-0.0361627
-0.0368216
-0.0375002
-0.0381872
-0.0388298
-0.0395025
0.0174994
0.0151307
0.00754214
0.000699453
-0.00273089
-0.00327239
-0.00291375
-0.00296778
-0.00351086
-0.00410404
-0.00450008
-0.00474551
-0.00495612
-0.00518593
-0.0054671
-0.00581757
-0.00614166
-0.00632435
-0.00644214
-0.0066409
-0.00692766
-0.00723601
-0.00751511
-0.00774431
-0.0079773
-0.00828352
-0.0086362
-0.00895765
-0.00922845
-0.00948422
-0.00974535
-0.00999459
-0.0102184
-0.0104393
-0.0106881
-0.0109532
-0.0112087
-0.0114729
-0.011782
-0.0121188
-0.0124346
-0.012727
-0.01303
-0.0133417
-0.0136315
-0.0139071
-0.0142013
-0.0145131
-0.0148224
-0.0151356
-0.0154796
-0.0158353
-0.0161708
-0.0165123
-0.0168717
-0.0172163
-0.0175598
-0.0179207
-0.0182837
-0.0186544
-0.0190416
-0.0194336
-0.0198275
-0.0202269
-0.0206267
-0.0210307
-0.0214483
-0.0218753
-0.022308
-0.0227446
-0.0231839
-0.0236283
-0.0240841
-0.0245494
-0.025022
-0.0254995
-0.0259826
-0.0264713
-0.0269691
-0.0274769
-0.0279948
-0.0285178
-0.0290486
-0.0295873
-0.0301371
-0.0306938
-0.0312629
-0.0318394
-0.0324278
-0.0330221
-0.0336294
-0.0342446
-0.0348741
-0.0355112
-0.0361626
-0.0368215
-0.0375001
-0.0381872
-0.0388298
-0.0395029
0.0164927
0.0147003
0.00773883
0.00103488
-0.0025065
-0.00318784
-0.00288131
-0.00293068
-0.0034655
-0.00405968
-0.00446026
-0.00471187
-0.00493101
-0.00517004
-0.0054561
-0.00580486
-0.00612607
-0.00631115
-0.00643509
-0.00663773
-0.00692374
-0.00722943
-0.00750788
-0.00773937
-0.00797449
-0.00827974
-0.00862984
-0.00895048
-0.00922282
-0.00948022
-0.00974171
-0.00999108
-0.0102158
-0.0104378
-0.0106867
-0.0109515
-0.011207
-0.0114714
-0.0117802
-0.0121165
-0.0124325
-0.0127255
-0.0130286
-0.0133403
-0.0136303
-0.0139063
-0.0142004
-0.014512
-0.0148213
-0.0151346
-0.0154786
-0.0158343
-0.01617
-0.0165116
-0.016871
-0.0172157
-0.0175592
-0.0179201
-0.0182831
-0.0186538
-0.0190411
-0.0194331
-0.019827
-0.0202265
-0.0206262
-0.0210303
-0.0214479
-0.0218749
-0.0223076
-0.0227443
-0.0231836
-0.023628
-0.0240838
-0.0245491
-0.0250217
-0.0254993
-0.0259823
-0.0264711
-0.0269689
-0.0274767
-0.0279946
-0.0285176
-0.0290484
-0.0295871
-0.0301369
-0.0306937
-0.0312628
-0.0318393
-0.0324276
-0.033022
-0.0336293
-0.0342445
-0.034874
-0.0355111
-0.0361624
-0.0368214
-0.0374999
-0.038187
-0.0388299
-0.0395034
0.0155349
0.0142191
0.00790252
0.00137039
-0.00226893
-0.00309423