/*--------------------------------*- C++ -*----------------------------------*\
| =========                 |                                                 |
| \\      /  F ield         | OpenFOAM: The Open Source CFD Toolbox           |
|  \\    /   O peration     | Version:  2506                                  |
|   \\  /    A nd           | Website:  www.openfoam.com                      |
|    \\/     M anipulation  |                                                 |
\*---------------------------------------------------------------------------*/
FoamFile
{
    version     2.0;
    format      ascii;
    arch        "LSB;label=32;scalar=64";
    class       surfaceScalarField;
    location    "7.15";
    object      phi;
}
// * * * * * * * * * * * * * * * * * * * * * * * * * * * * * * * * * * * * * //

dimensions      [0 3 -1 0 0 0 0];

oriented        oriented;

internalField   nonuniform List<scalar> 
19000
(
1.2436e-06
5.51669e-08
1.02358e-06
8.85456e-07
1.04992e-06
-1.21358e-06
1.26868e-06
6.58077e-07
1.21238e-06
8.62732e-07
1.08509e-06
2.28274e-07
1.1582e-06
7.91777e-08
1.12264e-06
3.53095e-07
1.12452e-06
5.01425e-07
1.17248e-06
1.0286e-06
1.16075e-06
3.43345e-07
1.15859e-06
4.01254e-07
1.16322e-06
2.20305e-07
1.15919e-06
3.54637e-07
1.14355e-06
2.3327e-07
1.13679e-06
2.84148e-07
1.13343e-06
1.50968e-07
1.1302e-06
1.13265e-07
1.14013e-06
8.54009e-08
8.58e-08
1.12112e-06
1.30455e-06
-2.51256e-08
1.08011e-06
1.1099e-06
1.11083e-06
-1.2443e-06
1.33333e-06
4.35577e-07
1.27608e-06
9.19981e-07
1.14461e-06
3.59744e-07
1.21952e-06
4.27483e-09
1.1772e-06
3.95409e-07
1.17743e-06
5.01199e-07
1.23945e-06
9.66588e-07
1.22223e-06
3.60557e-07
1.22572e-06
3.9777e-07
1.2229e-06
2.23119e-07
1.22992e-06
3.47618e-07
1.19956e-06
2.63633e-07
1.20951e-06
2.742e-07
1.18486e-06
1.75612e-07
1.20278e-06
9.53468e-08
1.18384e-06
1.04337e-07
6.38106e-08
1.20583e-06
1.36704e-06
-1.09386e-07
1.15495e-06
1.32199e-06
1.1778e-06
-1.26716e-06
1.39991e-06
2.13466e-07
1.3487e-06
9.71191e-07
1.21658e-06
4.9187e-07
1.28525e-06
-6.44005e-08
1.25114e-06
4.29522e-07
1.23417e-06
5.18173e-07
1.31605e-06
8.84703e-07
1.29036e-06
3.86246e-07
1.30372e-06
3.84412e-07
1.28716e-06
2.39682e-07
1.30431e-06
3.3046e-07
1.26548e-06
3.02462e-07
1.27439e-06
2.6529e-07
1.25068e-06
1.99322e-07
1.25846e-06
8.75731e-08
1.25202e-06
1.10771e-07
6.25205e-08
1.25331e-06
1.43198e-06
-1.97266e-07
1.24881e-06
1.50516e-06
1.25361e-06
-1.27195e-06
1.46779e-06
-7.19786e-10
1.42863e-06
1.01036e-06
1.30259e-06
6.17907e-07
1.35621e-06
-1.18023e-07
1.34021e-06
4.45525e-07
1.29875e-06
5.59637e-07
1.39098e-06
7.92468e-07
1.36387e-06
4.13357e-07
1.37812e-06
3.70161e-07
1.35628e-06
2.61527e-07
1.37004e-06
3.16698e-07
1.33897e-06
3.33532e-07
1.33576e-06
2.68498e-07
1.3205e-06
2.14585e-07
1.31791e-06
9.01622e-08
1.31682e-06
1.11863e-07
6.57764e-08
1.31356e-06
1.49784e-06
-2.86753e-07
1.35987e-06
1.64313e-06
1.33527e-06
-1.24735e-06
1.53209e-06
-1.9754e-07
1.51231e-06
1.03014e-06
1.40026e-06
7.29948e-07
1.42905e-06
-1.46811e-07
1.43275e-06
4.41824e-07
1.37395e-06
6.18443e-07
1.45811e-06
7.08304e-07
1.44042e-06
4.31048e-07
1.44722e-06
3.6336e-07
1.4279e-06
2.80844e-07
1.43336e-06
3.11243e-07
1.41362e-06
3.53274e-07
1.4031e-06
2.79017e-07
1.39066e-06
2.27019e-07
1.3839e-06
9.69248e-08
1.38172e-06
1.14046e-07
7.04679e-08
1.37703e-06
1.56257e-06
-3.73646e-07
1.47861e-06
1.72709e-06
1.41798e-06
-1.18672e-06
1.58851e-06
-3.68075e-07
1.59515e-06
1.02351e-06
1.50281e-06
8.22288e-07
1.50052e-06
-1.44527e-07
1.51564e-06
4.26703e-07
1.45868e-06
6.75405e-07
1.52194e-06
6.45048e-07
1.51691e-06
4.36077e-07
1.51554e-06
3.64727e-07
1.50014e-06
2.96244e-07
1.49989e-06
3.11491e-07
1.48783e-06
3.65335e-07
1.47625e-06
2.90597e-07
1.464e-06
2.39272e-07
1.45444e-06
1.06484e-07
1.4505e-06
1.17982e-07
7.76201e-08
1.44335e-06
1.62469e-06
-4.52115e-07
1.59199e-06
1.75979e-06
1.4987e-06
-1.09343e-06
1.63678e-06
-5.06154e-07
1.67292e-06
9.87371e-07
1.60254e-06
8.92663e-07
1.57008e-06
-1.12061e-07
1.58543e-06
4.11348e-07
1.54708e-06
7.13754e-07
1.5879e-06
6.04228e-07
1.59039e-06
4.33589e-07
1.58487e-06
3.70243e-07
1.57232e-06
3.08794e-07
1.57004e-06
3.1378e-07
1.56261e-06
3.72757e-07
1.55279e-06
3.00419e-07
1.54128e-06
2.50787e-07
1.52926e-06
1.185e-07
1.52354e-06
1.23702e-07
8.74178e-08
1.51374e-06
1.68447e-06
-5.16458e-07
1.69143e-06
1.75283e-06
1.57867e-06
-9.8067e-07
1.68125e-06
-6.08734e-07
1.74306e-06
9.25565e-07
1.69501e-06
9.40713e-07
1.64029e-06
-5.73486e-08
1.64821e-06
4.03435e-07
1.63218e-06
7.29784e-07
1.65632e-06
5.80088e-07
1.66034e-06
4.29565e-07
1.65467e-06
3.7591e-07
1.64465e-06
3.18819e-07
1.64255e-06
3.15883e-07
1.63847e-06
3.76833e-07
1.63114e-06
3.07744e-07
1.62143e-06
2.60504e-07
1.60794e-06
1.31992e-07
1.6007e-06
1.30942e-07
9.94867e-08
1.58863e-06
1.74426e-06
-5.63147e-07
1.77695e-06
1.72014e-06
1.66169e-06
-8.65404e-07
1.72833e-06
-6.75382e-07
1.80555e-06
8.48345e-07
1.77966e-06
9.66606e-07
1.71438e-06
7.93644e-09
1.71244e-06
4.05377e-07
1.71107e-06
7.31148e-07
1.72547e-06
5.65687e-07
1.72909e-06
4.25942e-07
1.72552e-06
3.79481e-07
1.71815e-06
3.26192e-07
1.71708e-06
3.16951e-07
1.71574e-06
3.78176e-07
1.71086e-06
3.12629e-07
1.70362e-06
2.67742e-07
1.68987e-06
1.45746e-07
1.68182e-06
1.38991e-07
1.13031e-07
1.66827e-06
1.80756e-06
-5.91986e-07
1.8545e-06
1.6732e-06
1.75028e-06
-7.61187e-07
1.78355e-06
-7.0865e-07
1.86359e-06
7.683e-07
1.85849e-06
9.71705e-07
1.79372e-06
7.27051e-08
1.78369e-06
4.15416e-07
1.78645e-06
7.28384e-07
1.79592e-06
5.56218e-07
1.8004e-06
4.21457e-07
1.79976e-06
3.80123e-07
1.79479e-06
3.31164e-07
1.79465e-06
3.17092e-07
1.7954e-06
3.77428e-07
1.7925e-06
3.15526e-07
1.78792e-06
2.72324e-07
1.77486e-06
1.58805e-07
1.76679e-06
1.47056e-07
1.26928e-07
1.7529e-06
1.87747e-06
-6.05712e-07
1.93092e-06
1.61976e-06
1.8442e-06
-6.74469e-07
1.85017e-06
-7.14621e-07
1.92285e-06
6.95624e-07
1.93475e-06
9.59803e-07
1.87783e-06
1.29621e-07
1.86369e-06
4.29558e-07
1.86391e-06
7.28164e-07
1.87089e-06
5.49242e-07
1.87777e-06
4.14573e-07
1.8799e-06
3.78e-07
1.87663e-06
3.34435e-07
1.87676e-06
3.16954e-07
1.87879e-06
3.75398e-07
1.87718e-06
3.17136e-07
1.87498e-06
2.7453e-07
1.86317e-06
1.70618e-07
1.85564e-06
1.54578e-07
1.4002e-07
1.84255e-06
1.95556e-06
-6.08429e-07
2.01081e-06
1.56451e-06
1.94177e-06
-6.05436e-07
1.92906e-06
-7.0191e-07
1.98904e-06
6.3565e-07
2.01203e-06
9.36807e-07
1.96568e-06
1.75968e-07
1.95177e-06
4.43473e-07
1.9483e-06
7.31633e-07
1.9539e-06
5.4364e-07
1.96333e-06
4.05146e-07
1.96725e-06
3.74081e-07
1.96483e-06
3.36854e-07
1.96451e-06
3.17277e-07
1.96705e-06
3.72855e-07
1.96598e-06
3.182e-07
1.96558e-06
2.74929e-07
1.95525e-06
1.8095e-07
1.94853e-06
1.61301e-07
1.51423e-07
1.93712e-06
2.04173e-06
-6.03971e-07
2.09615e-06
1.51009e-06
2.0417e-06
-5.50987e-07
2.01902e-06
-6.79229e-07
2.06546e-06
5.89212e-07
2.09344e-06
9.08826e-07
2.05688e-06
2.12524e-07
2.04637e-06
4.53986e-07
2.04158e-06
7.36423e-07
2.04648e-06
5.38744e-07
2.05738e-06
3.94242e-07
2.06173e-06
3.69733e-07
2.05947e-06
3.39114e-07
2.05818e-06
3.1857e-07
2.06071e-06
3.7032e-07
2.05964e-06
3.19267e-07
2.06036e-06
2.74217e-07
2.05155e-06
1.89759e-07
2.04563e-06
1.67218e-07
1.6068e-07
2.03637e-06
2.1351e-06
-5.95068e-07
2.1875e-06
1.45769e-06
2.14378e-06
-5.07269e-07
2.11778e-06
-6.53224e-07
2.15255e-06
5.54443e-07
2.18106e-06
8.80314e-07
2.15191e-06
2.41675e-07
2.14611e-06
4.59787e-07
2.14303e-06
7.395e-07
2.14774e-06
5.34037e-07
2.15881e-06
3.83168e-07
2.1624e-06
3.66146e-07
2.15997e-06
3.41546e-07
2.15758e-06
3.20955e-07
2.15988e-06
3.68021e-07
2.15857e-06
3.20576e-07
2.15971e-06
2.73077e-07
2.15235e-06
1.9712e-07
2.14711e-06
1.72458e-07
1.67772e-07
2.14002e-06
2.2348e-06
-5.83379e-07
2.28502e-06
1.40747e-06
2.24862e-06
-4.70869e-07
2.2231e-06
-6.27711e-07
2.24906e-06
5.28493e-07
2.27589e-06
8.53484e-07
2.25165e-06
2.65914e-07
2.25018e-06
4.61251e-07
2.25074e-06
7.38938e-07
2.25561e-06
5.29172e-07
2.266e-06
3.72774e-07
2.26818e-06
3.63971e-07
2.26561e-06
3.4411e-07
2.26238e-06
3.24194e-07
2.26441e-06
3.65989e-07
2.2629e-06
3.22079e-07
2.26391e-06
2.72067e-07
2.25786e-06
2.03178e-07
2.25313e-06
1.77187e-07
1.73018e-07
2.24788e-06
2.34041e-06
-5.69917e-07
2.3888e-06
1.35908e-06
2.35707e-06
-4.39141e-07
2.33356e-06
-6.04205e-07
2.35345e-06
5.08609e-07
2.37806e-06
8.28875e-07
2.35689e-06
2.87082e-07
2.3585e-06
4.5964e-07
2.36317e-06
7.34264e-07
2.36831e-06
5.24036e-07
2.37775e-06
3.63328e-07
2.37837e-06
3.63353e-07
2.37588e-06
3.46604e-07
2.37223e-06
3.2784e-07
2.37405e-06
3.64168e-07
2.37262e-06
3.23514e-07
2.37319e-06
2.71499e-07
2.36826e-06
2.08108e-07
2.36393e-06
1.81511e-07
1.76897e-07
2.36005e-06
2.45186e-06
-5.55382e-07
2.49881e-06
1.31214e-06
2.46991e-06
-4.10245e-07
2.4486e-06
-5.82894e-07
2.46454e-06
4.92666e-07
2.48715e-06
8.06264e-07
2.46809e-06
3.06141e-07
2.47153e-06
4.56208e-07
2.47982e-06
7.25968e-07
2.48508e-06
5.18782e-07
2.49363e-06
3.54778e-07
2.49283e-06
3.64154e-07
2.49055e-06
3.48884e-07
2.487e-06
3.31385e-07
2.48871e-06
3.62462e-07
2.4877e-06
3.24524e-07
2.48781e-06
2.71386e-07
2.48379e-06
2.12124e-07
2.47988e-06
1.85419e-07
1.79893e-07
2.47689e-06
2.5692e-06
-5.40283e-07
2.61493e-06
1.26641e-06
2.58772e-06
-3.83036e-07
2.56822e-06
-5.634e-07
2.58163e-06
4.79257e-07
2.60263e-06
7.85272e-07
2.58551e-06
3.23258e-07
2.59002e-06
4.51702e-07
2.60109e-06
7.14897e-07
2.60605e-06
5.13816e-07
2.61377e-06
3.47063e-07
2.61179e-06
3.66133e-07
2.60974e-06
3.50933e-07
2.6068e-06
3.34326e-07
2.60852e-06
3.6074e-07
2.60827e-06
3.24777e-07
2.60812e-06
2.7153e-07
2.60477e-06
2.15479e-07
2.60134e-06
1.88845e-07
1.82385e-07
2.59885e-06
2.69249e-06
-5.24947e-07
2.73718e-06
1.22172e-06
2.71095e-06
-3.56805e-07
2.69269e-06
-5.45136e-07
2.70448e-06
4.67461e-07
2.72419e-06
7.65562e-07
2.70931e-06
3.38145e-07
2.7146e-06
4.46411e-07
2.72761e-06
7.01883e-07
2.73177e-06
5.09658e-07
2.73859e-06
3.40244e-07
2.73573e-06
3.68994e-07
2.73385e-06
3.5281e-07
2.73198e-06
3.36197e-07
2.73388e-06
3.58841e-07
2.73456e-06
3.24096e-07
2.73445e-06
2.71643e-07
2.73145e-06
2.18472e-07
2.72853e-06
1.91762e-07
1.8461e-07
2.72631e-06
2.82187e-06
-5.09551e-07
2.8658e-06
1.17779e-06
2.84004e-06
-3.31043e-07
2.82232e-06
-5.27415e-07
2.83327e-06
4.5651e-07
2.85201e-06
7.46822e-07
2.83965e-06
3.505e-07
2.84555e-06
4.40517e-07
2.85981e-06
6.87619e-07
2.86276e-06
5.06708e-07
2.86859e-06
3.34418e-07
2.86522e-06
3.72356e-07
2.86341e-06
3.54621e-07
2.86297e-06
3.36641e-07
2.86518e-06
3.56626e-07
2.86675e-06
3.22533e-07
2.86694e-06
2.71451e-07
2.86401e-06
2.21405e-07
2.86152e-06
1.94246e-07
1.86657e-07
2.85948e-06
2.95753e-06
-4.94184e-07
3.00105e-06
1.13427e-06
2.97538e-06
-3.05375e-07
2.95751e-06
-5.09548e-07
2.9684e-06
4.45623e-07
2.98645e-06
7.28774e-07
2.97666e-06
3.60287e-07
2.98286e-06
4.34318e-07
2.99781e-06
6.72665e-07
2.99947e-06
5.05055e-07
3.00431e-06
3.29577e-07
3.00092e-06
3.75744e-07
2.99902e-06
3.56522e-07
3.00013e-06
3.35531e-07
3.00272e-06
3.54033e-07
3.0049e-06
3.20355e-07
3.00561e-06
2.70743e-07
3.00257e-06
2.24444e-07
3.0003e-06
1.96511e-07
1.88465e-07
2.99849e-06
3.09973e-06
-4.78911e-07
3.14312e-06
1.09088e-06
3.11737e-06
-2.79626e-07
3.09879e-06
-4.90966e-07
3.11033e-06
4.34085e-07
3.12786e-06
7.11246e-07
3.1204e-06
3.67748e-07
3.12654e-06
4.28175e-07
3.14175e-06
6.57452e-07
3.14233e-06
5.04482e-07
3.14632e-06
3.25582e-07
3.14341e-06
3.78653e-07
3.14122e-06
3.58719e-07
3.14375e-06
3.32997e-07
3.14671e-06
3.51078e-07
3.1491e-06
3.17966e-07
3.15045e-06
2.69389e-07
3.14734e-06
2.2755e-07
3.14498e-06
1.98872e-07
1.89876e-07
3.14357e-06
3.2488e-06
-4.63804e-07
3.29214e-06
1.04755e-06
3.26637e-06
-2.53856e-07
3.24672e-06
-4.71319e-07
3.25941e-06
4.21393e-07
3.27644e-06
6.94217e-07
3.27094e-06
3.73245e-07
3.2768e-06
4.22322e-07
3.29197e-06
6.42281e-07
3.29186e-06
5.04592e-07
3.29518e-06
3.22259e-07
3.29319e-06
3.80645e-07
3.2905e-06
3.61403e-07
3.29413e-06
3.29369e-07
3.29742e-06
3.47794e-07
3.2996e-06
3.1578e-07
3.30159e-06
2.67404e-07
3.29867e-06
2.3047e-07
3.29591e-06
2.01626e-07
1.90815e-07
3.29498e-06
3.40507e-06
-4.48944e-07
3.44824e-06
1.00438e-06
3.42267e-06
-2.28287e-07
3.40182e-06
-4.50472e-07
3.4159e-06
4.07314e-07
3.43234e-06
6.77773e-07
3.42845e-06
3.77141e-07
3.434e-06
4.16764e-07
3.44896e-06
6.2733e-07
3.44857e-06
5.04977e-07
3.45133e-06
3.19499e-07
3.45054e-06
3.8143e-07
3.44728e-06
3.64669e-07
3.45158e-06
3.2507e-07
3.4552e-06
3.44168e-07
3.45688e-06
3.14103e-07
3.45932e-06
2.64962e-07
3.45695e-06
2.32838e-07
3.45364e-06
2.04938e-07
1.91419e-07
3.45304e-06
3.56888e-06
-4.34409e-07
3.6117e-06
9.6156e-07
3.5866e-06
-2.03188e-07
3.56455e-06
-4.28425e-07
3.58004e-06
3.91828e-07
3.59579e-06
6.62017e-07
3.59316e-06
3.79771e-07
3.59861e-06
4.11314e-07
3.61325e-06
6.1269e-07
3.61292e-06
5.05314e-07
3.61515e-06
3.17267e-07
3.61569e-06
3.80894e-07
3.61187e-06
3.6848e-07
3.6164e-06
3.20543e-07
3.62047e-06
3.40103e-07
3.62149e-06
3.13074e-07
3.62406e-06
2.62396e-07
3.62262e-06
2.34278e-07
3.6188e-06
2.08758e-07
1.92085e-07
3.61814e-06
3.74055e-06
-4.20248e-07
3.78288e-06
9.19226e-07
3.75849e-06
-1.788e-07
3.73531e-06
-4.05239e-07
3.75209e-06
3.75045e-07
3.76714e-06
6.46969e-07
3.76544e-06
3.81472e-07
3.77105e-06
4.05703e-07
3.78535e-06
5.9839e-07
3.78525e-06
5.05412e-07
3.78696e-06
3.15552e-07
3.78879e-06
3.79069e-07
3.78458e-06
3.72687e-07
3.78893e-06
3.16198e-07
3.79357e-06
3.35456e-07
3.79397e-06
3.12673e-07
3.79628e-06
2.60094e-07
3.79601e-06
2.34539e-07
3.79197e-06
2.12799e-07
1.93308e-07
3.79075e-06
3.92041e-06
-4.06473e-07
3.96218e-06
8.77462e-07
3.9387e-06
-1.55327e-07
3.91445e-06
-3.80989e-07
3.93235e-06
3.57147e-07
3.94679e-06
6.32526e-07
3.94567e-06
3.82601e-07
3.95169e-06
3.99683e-07
3.96567e-06
5.8441e-07
3.96587e-06
5.05206e-07
3.96709e-06
3.14334e-07
3.97009e-06
3.7607e-07
3.96569e-06
3.77089e-07
3.96952e-06
3.12368e-07
3.97486e-06
3.30115e-07
3.97479e-06
3.1274e-07
3.97648e-06
2.58409e-07
3.97739e-06
2.3363e-07
3.97365e-06
2.16535e-07
1.95493e-07
3.97147e-06
4.10883e-06
-3.93049e-07
4.14998e-06
8.36308e-07
4.12761e-06
-1.32956e-07
4.10238e-06
-3.55761e-07
4.12116e-06
3.3837e-07
4.13522e-06
6.18464e-07
4.13428e-06
3.83539e-07
4.14089e-06
3.93074e-07
4.15463e-06
5.70676e-07
4.15511e-06
5.04725e-07
4.15587e-06
3.13576e-07
4.15991e-06
3.72025e-07
4.15551e-06
3.81487e-07
4.15859e-06
3.09288e-07
4.16465e-06
3.2406e-07
4.16436e-06
3.13024e-07
4.16517e-06
2.57597e-07
4.16699e-06
2.31815e-07
4.16417e-06
2.19358e-07
1.98691e-07
4.16097e-06
4.30617e-06
-3.79921e-07
4.34666e-06
7.95823e-07
4.32558e-06
-1.11881e-07
4.2995e-06
-3.29679e-07
4.31887e-06
3.19004e-07
4.33287e-06
6.04466e-07
4.33175e-06
3.84657e-07
4.33903e-06
3.85787e-07
4.35265e-06
5.57059e-07
4.35333e-06
5.04045e-07
4.35364e-06
3.13263e-07
4.35865e-06
3.67022e-07
4.35441e-06
3.85722e-07
4.35657e-06
3.0713e-07
4.36328e-06
3.17353e-07
4.36307e-06
3.13237e-07
4.36288e-06
2.57782e-07
4.36518e-06
2.29511e-07
4.36375e-06
2.20794e-07
2.02532e-07
4.35991e-06
4.51288e-06
-3.67031e-07
4.5526e-06
7.56104e-07
4.533e-06
-9.22793e-08
4.50626e-06
-3.02938e-07
4.52586e-06
2.99404e-07
4.54019e-06
5.90137e-07
4.53855e-06
3.86299e-07
4.54649e-06
3.77842e-07
4.56018e-06
5.43367e-07
4.56098e-06
5.03251e-07
4.56083e-06
3.13415e-07
4.56674e-06
3.61103e-07
4.56282e-06
3.89646e-07
4.56391e-06
3.06043e-07
4.57113e-06
3.10127e-07
4.57127e-06
3.13099e-07
4.57007e-06
2.58979e-07
4.57247e-06
2.2711e-07
4.57255e-06
2.20716e-07
2.06282e-07
4.5688e-06
4.72943e-06
-3.54341e-07
4.76823e-06
7.17296e-07
4.75022e-06
-7.42669e-08
4.72313e-06
-2.75845e-07
4.74254e-06
2.79988e-07
4.75764e-06
5.75039e-07
4.75521e-06
3.88735e-07
4.76368e-06
3.6937e-07
4.77768e-06
5.29369e-07
4.77853e-06
5.02393e-07
4.77784e-06
3.1411e-07
4.78466e-06
3.54279e-07
4.78121e-06
3.93102e-07
4.78109e-06
3.06164e-07
4.78871e-06
3.02507e-07
4.78935e-06
3.12453e-07
4.78729e-06
2.61035e-07
4.78941e-06
2.24992e-07
4.79082e-06
2.19307e-07
2.09141e-07
4.78796e-06
4.9563e-06
-3.41844e-07
4.99405e-06
6.79548e-07
4.97763e-06
-5.78478e-08
4.9506e-06
-2.48815e-07
4.96936e-06
2.61224e-07
4.98567e-06
5.58736e-07
4.98229e-06
3.92112e-07
4.99103e-06
3.60633e-07
5.00558e-06
5.14812e-07
5.00653e-06
5.01452e-07
5.00516e-06
3.15478e-07
5.01287e-06
3.46569e-07
5.0101e-06
3.95873e-07
5.00864e-06
3.07619e-07
5.01644e-06
2.94708e-07
5.01791e-06
3.10984e-07
5.01506e-06
2.63888e-07
5.01666e-06
2.23391e-07
5.01901e-06
2.16961e-07
2.10566e-07
5.01758e-06
5.19402e-06
-3.29548e-07
5.2306e-06
6.42967e-07
5.21563e-06
-4.28807e-08
5.1892e-06
-2.22381e-07
5.2068e-06
2.43624e-07
5.22468e-06
5.40855e-07
5.22039e-06
3.96402e-07
5.22902e-06
3.52e-07
5.24436e-06
4.99473e-07
5.24551e-06
5.00307e-07
5.24329e-06
3.17697e-07
5.25183e-06
3.38031e-07
5.25004e-06
3.97656e-07
5.24711e-06
3.1055e-07
5.25483e-06
2.86993e-07
5.25751e-06
3.08301e-07
5.25397e-06
2.6743e-07
5.25482e-06
2.22533e-07
5.2577e-06
2.14088e-07
2.10397e-07
5.25787e-06
5.4431e-06
-3.17459e-07
5.47849e-06
6.07576e-07
5.46468e-06
-2.90734e-08
5.43945e-06
-1.97148e-07
5.45538e-06
2.2769e-07
5.47504e-06
5.21197e-07
5.47011e-06
4.01333e-07
5.47818e-06
3.43927e-07
5.49446e-06
4.83199e-07
5.49603e-06
4.98732e-07
5.49278e-06
3.20946e-07
5.50201e-06
3.28809e-07
5.50157e-06
3.98094e-07
5.49714e-06
3.14976e-07
5.50435e-06
2.79791e-07
5.50864e-06
3.04004e-07
5.50463e-06
2.71447e-07
5.50447e-06
2.22689e-07
5.50761e-06
2.10944e-07
2.0885e-07
5.50916e-06
5.70406e-06
-3.05561e-07
5.73835e-06
5.73282e-07
5.72528e-06
-1.60015e-08
5.70191e-06
-1.73777e-07
5.71571e-06
2.13894e-07
5.7371e-06
4.99807e-07
5.73206e-06
4.06367e-07
5.73909e-06
3.36896e-07
5.75632e-06
4.65972e-07
5.75866e-06
4.96395e-07
5.75427e-06
3.25336e-07
5.76387e-06
3.19209e-07
5.76518e-06
3.96783e-07
5.75942e-06
3.20735e-07
5.76561e-06
2.73601e-07
5.77166e-06
2.97949e-07
5.76771e-06
2.75405e-07
5.76621e-06
2.24184e-07
5.76933e-06
2.07823e-07
2.06138e-07
5.77204e-06
5.97744e-06
-2.93806e-07
6.01083e-06
5.39891e-07
5.998e-06
-3.16864e-09
5.97713e-06
-1.52909e-07
5.98843e-06
2.02592e-07
6.01124e-06
4.76993e-07
6.00682e-06
4.10792e-07
6.0124e-06
3.31318e-07
6.03044e-06
4.47932e-07
6.0339e-06
4.92927e-07
6.02839e-06
3.30852e-07
6.03793e-06
3.09672e-07
6.04135e-06
3.93361e-07
6.03463e-06
3.27452e-07
6.03923e-06
2.69006e-07
6.04697e-06
2.90203e-07
6.04377e-06
2.78608e-07
6.04079e-06
2.2716e-07
6.04345e-06
2.0517e-07
2.02507e-07
6.04708e-06
6.26379e-06
-2.8211e-07
6.29657e-06
5.07116e-07
6.28346e-06
9.94284e-09
6.26562e-06
-1.35076e-07
6.27432e-06
1.93896e-07
6.29794e-06
4.53376e-07
6.29491e-06
4.13822e-07
6.2988e-06
3.27422e-07
6.31733e-06
4.29407e-07
6.32229e-06
4.87962e-07
6.3158e-06
3.37343e-07
6.32477e-06
3.00701e-07
6.33051e-06
3.87629e-07
6.32342e-06
3.34536e-07
6.32593e-06
2.66494e-07
6.33502e-06
2.8112e-07
6.33329e-06
2.80331e-07
6.329e-06
2.31452e-07
6.33067e-06
2.03503e-07
1.98256e-07
6.33492e-06
6.56372e-06
-2.70357e-07
6.59622e-06
4.74608e-07
6.58237e-06
2.3796e-08
6.56786e-06
-1.20562e-07
6.5742e-06
1.87548e-07
6.59777e-06
4.29811e-07
6.59683e-06
4.14762e-07
6.59905e-06
3.25201e-07
6.61761e-06
4.10843e-07
6.62431e-06
4.81261e-07
6.61716e-06
3.44494e-07
6.62506e-06
2.92804e-07
6.63313e-06
3.7956e-07
6.62634e-06
3.41322e-07
6.62648e-06
2.66361e-07
6.63631e-06
2.71283e-07
6.63667e-06
2.79974e-07
6.6316e-06
2.3652e-07
6.63181e-06
2.03296e-07
1.93896e-07
6.63617e-06
6.87784e-06
-2.5841e-07
6.91045e-06
4.42004e-07
6.89552e-06
3.87198e-08
6.88419e-06
-1.0923e-07
6.88893e-06
1.82813e-07
6.91145e-06
4.0729e-07
6.91313e-06
4.13084e-07
6.91391e-06
3.24421e-07
6.93196e-06
3.92789e-07
6.94049e-06
4.72734e-07
6.93308e-06
3.51899e-07
6.93952e-06
2.86363e-07
6.9497e-06
3.69383e-07
6.94395e-06
3.47074e-07
6.94164e-06
2.68671e-07
6.95142e-06
2.61504e-07
6.95431e-06
2.77083e-07
6.94917e-06
2.41664e-07
6.94779e-06
2.04673e-07
1.90096e-07
6.95159e-06
7.20685e-06
-2.46123e-07
7.23989e-06
4.08963e-07
7.22376e-06
5.48469e-08
7.21499e-06
-1.00455e-07
7.21925e-06
1.78555e-07
7.23981e-06
3.86722e-07
7.24427e-06
4.0863e-07
7.24413e-06
3.24564e-07
7.26111e-06
3.75807e-07
7.27137e-06
4.62473e-07
7.26417e-06
3.59102e-07
7.26893e-06
2.816e-07
7.28079e-06
3.57521e-07
7.27675e-06
3.51115e-07
7.27222e-06
2.73204e-07
7.28102e-06
2.52695e-07
7.28656e-06
2.71548e-07
7.28217e-06
2.46049e-07
7.27943e-06
2.07417e-07
1.87387e-07
7.28214e-06
7.55146e-06
-2.33362e-07
7.58521e-06
3.75218e-07
7.56797e-06
7.209e-08
7.56077e-06
-9.32543e-08
7.56584e-06
1.7348e-07
7.58371e-06
3.68848e-07
7.59072e-06
4.01619e-07
7.59039e-06
3.24896e-07
7.60583e-06
3.6037e-07
7.61757e-06
4.50729e-07
7.61101e-06
3.65661e-07
7.61401e-06
2.78607e-07
7.627e-06
3.44532e-07
7.62522e-06
3.52893e-07
7.61899e-06
2.79435e-07
7.6259e-06
2.45782e-07
7.63384e-06
2.63609e-07
7.63107e-06
2.48817e-07
7.62737e-06
2.11115e-07
1.86005e-07
7.62876e-06
7.91246e-06
-2.20011e-07
7.94705e-06
3.40627e-07
7.92904e-06
9.01014e-08
7.92219e-06
-8.64077e-08
7.92929e-06
1.66384e-07
7.94412e-06
3.54018e-07
7.95305e-06
3.92687e-07
7.95331e-06
3.24632e-07
7.96697e-06
3.46711e-07
7.97979e-06
4.37912e-07
7.97421e-06
3.71241e-07
7.97549e-06
2.77324e-07
7.98899e-06
3.31037e-07
7.98978e-06
3.52097e-07
7.98265e-06
2.86568e-07
7.98703e-06
2.41406e-07
7.99667e-06
2.53968e-07
7.99633e-06
2.49157e-07
7.99219e-06
2.15255e-07
1.85903e-07
7.99229e-06
8.29066e-06
-2.05991e-07
8.3261e-06
3.05191e-07
8.30787e-06
1.08329e-07
8.30011e-06
-7.86435e-08
8.31011e-06
1.56385e-07
8.32211e-06
3.42015e-07
8.33196e-06
3.82835e-07
8.33347e-06
3.23121e-07
8.34536e-06
3.34821e-07
8.35872e-06
4.24553e-07
8.35434e-06
3.75623e-07
8.35405e-06
2.77616e-07
8.36751e-06
3.17569e-07
8.3709e-06
3.48711e-07
8.36387e-06
2.93595e-07
8.36557e-06
2.39712e-07
8.37576e-06
2.43778e-07
8.37839e-06
2.46522e-07
8.37455e-06
2.19101e-07
1.86976e-07
8.37347e-06
8.68694e-06
-1.91269e-07
8.72304e-06
2.69091e-07
8.70533e-06
1.26041e-07
8.69554e-06
-6.88537e-08
8.70871e-06
1.43208e-07
8.71872e-06
3.32006e-07
8.72832e-06
3.73241e-07
8.73135e-06
3.20084e-07
8.74181e-06
3.24363e-07
8.75512e-06
4.1125e-07
8.75204e-06
3.78703e-07
8.75036e-06
2.79292e-07
8.76338e-06
3.04547e-07
8.76926e-06
3.42834e-07
8.76332e-06
2.99538e-07
8.76265e-06
2.40375e-07
8.77218e-06
2.34256e-07
8.77778e-06
2.40922e-07
8.77509e-06
2.21789e-07
1.88926e-07
8.77314e-06
9.10223e-06
-1.75878e-07
9.13864e-06
2.32684e-07
9.1223e-06
1.42381e-07
9.10961e-06
-5.61695e-08
9.12562e-06
1.27194e-07
9.13479e-06
3.22838e-07
9.14304e-06
3.64989e-07
9.14745e-06
3.15676e-07
9.157e-06
3.1481e-07
9.16993e-06
3.98328e-07
9.1682e-06
3.80431e-07
9.16537e-06
2.82118e-07
9.17758e-06
2.92342e-07
9.18585e-06
3.34565e-07
9.18165e-06
3.03729e-07
9.17933e-06
2.42703e-07
9.18716e-06
2.2642e-07
9.19511e-06
2.32972e-07
9.19445e-06
2.22451e-07
1.91247e-07
9.19213e-06
9.5375e-06
-1.5992e-07
9.5737e-06
1.9649e-07
9.55965e-06
1.56429e-07
9.54357e-06
-4.00874e-08
9.56145e-06
1.09313e-07
9.57084e-06
3.13444e-07
9.57709e-06
3.58737e-07
9.58233e-06
3.10441e-07
9.59168e-06
3.05461e-07
9.60435e-06
3.8566e-07
9.60402e-06
3.80762e-07
9.60038e-06
2.85752e-07
9.61129e-06
2.81436e-07
9.62171e-06
3.24139e-07
9.61968e-06
3.05762e-07
9.61648e-06
2.45904e-07
9.62212e-06
2.20784e-07
9.63133e-06
2.23761e-07
9.63318e-06
2.20593e-07
1.93189e-07
9.63124e-06
9.99379e-06
-1.43575e-07
1.00291e-05
1.61156e-07
1.00182e-05
1.67306e-07
9.99871e-06
-2.05548e-08
1.0017e-05
9.10317e-08
1.0028e-05
3.02455e-07
1.00316e-05
3.55124e-07
1.00368e-05
3.05208e-07
1.00467e-05
2.95551e-07
1.00596e-05
3.72838e-07
1.00606e-05
3.79731e-07
1.00564e-05
2.89901e-07
1.00657e-05
2.7221e-07
1.00779e-05
3.11887e-07
1.00783e-05
3.05347e-07
1.0075e-05
2.49243e-07
1.00783e-05
2.17452e-07
1.00877e-05
2.14424e-07
1.0092e-05
2.16263e-07
1.94041e-07
1.00911e-05
1.04722e-05
-1.27107e-07
1.05059e-05
1.27439e-07
1.0499e-05
1.74179e-07
1.04764e-05
2.09467e-09
1.04934e-05
7.39671e-08
1.05074e-05
2.88506e-07
1.05086e-05
3.53915e-07
1.05124e-05
3.01418e-07
1.05229e-05
2.84982e-07
1.05367e-05
3.59089e-07
1.05391e-05
3.77316e-07
1.05347e-05
2.94361e-07
1.05419e-05
2.64975e-07
1.05554e-05
2.98347e-07
1.05585e-05
3.02303e-07
1.05557e-05
2.51986e-07
1.0557e-05
2.16144e-07
1.05655e-05
2.05966e-07
1.05718e-05
2.09927e-07
1.93295e-07
1.05726e-05
1.09738e-05
-1.10859e-07
1.1005e-05
9.61892e-08
1.10029e-05
1.76273e-07
1.09778e-05
2.72044e-08
1.09921e-05
5.97323e-08
1.10097e-05
2.7083e-07
1.10102e-05
3.5348e-07
1.1011e-05
3.00567e-07
1.10212e-05
2.74819e-07
1.10365e-05
3.43744e-07
1.10408e-05
3.73068e-07
1.10363e-05
2.98818e-07
1.10413e-05
2.5995e-07
1.10554e-05
2.84314e-07
1.1061e-05
2.96642e-07
1.10595e-05
2.53512e-07
1.10594e-05
2.16224e-07
1.10663e-05
1.99128e-07
1.10739e-05
2.02316e-07
1.90745e-07
1.10764e-05
1.14997e-05
-9.52381e-08
1.15276e-05
6.82977e-08
1.15309e-05
1.73027e-07
1.15043e-05
5.37978e-08
1.15142e-05
4.97947e-08
1.15355e-05
2.4955e-07
1.1537e-05
3.51941e-07
1.15347e-05
3.02877e-07
1.15429e-05
2.66606e-07
1.15598e-05
3.26905e-07
1.15665e-05
3.66387e-07
1.15626e-05
3.02687e-07
1.15653e-05
2.57203e-07
1.1579e-05
2.70645e-07
1.15871e-05
2.88599e-07
1.15871e-05
2.53437e-07
1.15865e-05
2.16821e-07
1.15914e-05
1.94227e-07
1.15994e-05
1.94385e-07
1.86401e-07
1.16037e-05
1.20513e-05
-8.06776e-08
1.2075e-05
4.45347e-08
1.20836e-05
1.64403e-07
1.2057e-05
8.04825e-08
1.20614e-05
4.53941e-08
1.20856e-05
2.25364e-07
1.20898e-05
3.477e-07
1.2085e-05
3.07628e-07
1.20902e-05
2.61472e-07
1.21076e-05
3.0946e-07
1.21171e-05
3.56895e-07
1.21145e-05
3.05316e-07
1.21152e-05
2.56441e-07
1.21277e-05
2.58192e-07
1.21377e-05
2.78592e-07
1.21396e-05
2.51556e-07
1.21392e-05
2.17163e-07
1.21425e-05
1.90978e-07
1.21497e-05
1.87136e-07
1.80536e-07
1.21556e-05
1.26295e-05
-6.75821e-08
1.26486e-05
2.54514e-08
1.2662e-05
1.50965e-07
1.2637e-05
1.05533e-07
1.26351e-05
4.72228e-08
1.26609e-05
1.9957e-07
1.26691e-05
3.39548e-07
1.26629e-05
3.13808e-07
1.26645e-05
2.59857e-07
1.26814e-05
2.92576e-07
1.26936e-05
3.44657e-07
1.26929e-05
3.06026e-07
1.26923e-05
2.57034e-07
1.27029e-05
2.47634e-07
1.27142e-05
2.67254e-07
1.2718e-05
2.47746e-07
1.27184e-05
2.16831e-07
1.27207e-05
1.88632e-07
1.27267e-05
1.81202e-07
1.73914e-07
1.27333e-05
1.32356e-05
-5.62652e-08
1.32497e-05
1.13716e-08
1.3267e-05
1.33696e-07
1.32453e-05
1.27204e-07
1.32375e-05
5.50435e-08
1.32628e-05
1.74273e-07
1.32755e-05
3.268e-07
1.32692e-05
3.20139e-07
1.32676e-05
2.61465e-07
1.32827e-05
2.77437e-07
1.32972e-05
3.30165e-07
1.3299e-05
3.04268e-07
1.32978e-05
2.58204e-07
1.33061e-05
2.39288e-07
1.3318e-05
2.55428e-07
1.33237e-05
2.41969e-07
1.3325e-05
2.15623e-07
1.33271e-05
1.86527e-07
1.33318e-05
1.76442e-07
1.67518e-07
1.33382e-05
1.38708e-05
-4.69158e-08
1.388e-05
2.19416e-09
1.38997e-05
1.13985e-07
1.38829e-05
1.43965e-07
1.38701e-05
6.79174e-08
1.38923e-05
1.52037e-07
1.39094e-05
3.09671e-07
1.39047e-05
3.24837e-07
1.39007e-05
2.65461e-07
1.39132e-05
2.65003e-07
1.39292e-05
3.14134e-07
1.39337e-05
2.99764e-07
1.39328e-05
2.59151e-07
1.3939e-05
2.33044e-07
1.39505e-05
2.43969e-07
1.3958e-05
2.34475e-07
1.39603e-05
2.13274e-07
1.39624e-05
1.84422e-07
1.39666e-05
1.72269e-07
1.61952e-07
1.39722e-05
1.45363e-05
-3.95926e-08
1.45408e-05
-2.24425e-09
1.45616e-05
9.31458e-08
1.45509e-05
1.54725e-07
1.45341e-05
8.46331e-08
1.45503e-05
1.35916e-07
1.45712e-05
2.88708e-07
1.45705e-05
3.25574e-07
1.45652e-05
2.70799e-07
1.45745e-05
2.55612e-07
1.4591e-05
2.97634e-07
1.45983e-05
2.92497e-07
1.45983e-05
2.59159e-07
1.46029e-05
2.28435e-07
1.46134e-05
2.33519e-07
1.4622e-05
2.25797e-07
1.46258e-05
2.0949e-07
1.46281e-05
1.82167e-07
1.46321e-05
1.68269e-07
1.57132e-07
1.46369e-05
1.52334e-05
-3.41284e-08
1.5234e-05
-2.82854e-09
1.52551e-05
7.20208e-08
1.52494e-05
1.60413e-07
1.523e-05
1.04068e-07
1.52375e-05
1.2837e-07
1.52621e-05
2.64134e-07
1.52672e-05
3.20468e-07
1.52621e-05
2.7596e-07
1.52686e-05
2.49109e-07
1.52844e-05
2.81807e-07
1.52942e-05
2.82739e-07
1.52957e-05
2.57618e-07
1.52992e-05
2.24916e-07
1.53083e-05
2.24394e-07
1.53175e-05
2.16655e-07
1.53227e-05
2.04248e-07
1.53254e-05
1.79454e-07
1.53293e-05
1.64425e-07
1.52528e-07
1.53339e-05
1.59636e-05
-3.04434e-08
1.59647e-05
-3.92965e-09
1.59816e-05
5.51896e-08
1.59779e-05
1.64046e-07
1.59593e-05
1.22672e-07
1.59602e-05
1.27533e-07
1.59847e-05
2.39627e-07
1.5996e-05
3.09199e-07
1.59927e-05
2.792e-07
1.59967e-05
2.45144e-07
1.6011e-05
2.67448e-07
1.60226e-05
2.71161e-07
1.60262e-05
2.54047e-07
1.60293e-05
2.2179e-07
1.60371e-05
2.16594e-07
1.60461e-05
2.07628e-07
1.60525e-05
1.97886e-07
1.60561e-05
1.75897e-07
1.60597e-05
1.60737e-07
1.47876e-07
1.60644e-05
1.67276e-05
-2.74722e-08
1.67173e-05
6.38058e-09
1.67317e-05
4.07851e-08
1.67386e-05
1.57137e-07
1.67247e-05
1.36624e-07
1.67214e-05
1.30794e-07
1.67425e-05
2.18502e-07
1.67584e-05
2.9336e-07
1.67582e-05
2.79363e-07
1.67606e-05
2.42796e-07
1.67729e-05
2.55091e-07
1.67855e-05
2.58614e-07
1.67911e-05
2.48372e-07
1.67946e-05
2.18377e-07
1.68013e-05
2.09885e-07
1.68098e-05
1.99098e-07
1.68168e-05
1.90888e-07
1.68213e-05
1.71372e-07
1.6825e-05
1.57052e-07
1.43191e-07
1.68297e-05
1.75284e-05
-2.55439e-08
1.75223e-05
1.24951e-08
1.75295e-05
3.35656e-08
1.75369e-05
1.49728e-07
1.7527e-05
1.46531e-07
1.75213e-05
1.36573e-07
1.75379e-05
2.01854e-07
1.75564e-05
2.7483e-07
1.75596e-05
2.76166e-07
1.75615e-05
2.40941e-07
1.75717e-05
2.44847e-07
1.75845e-05
2.45878e-07
1.7592e-05
2.40883e-07
1.75963e-05
2.14054e-07
1.76023e-05
2.03829e-07
1.76103e-05
1.91181e-07
1.76175e-05
1.83673e-07
1.76229e-05
1.65986e-07
1.76268e-05
1.53116e-07
1.3851e-07
1.76315e-05
1.83668e-05
-2.40365e-08
1.83587e-05
2.06731e-08
1.83637e-05
2.8576e-08
1.83733e-05
1.40038e-07
1.83675e-05
1.52411e-07
1.83607e-05
1.43319e-07
1.83728e-05
1.89721e-07
1.83921e-05
2.55624e-07
1.83987e-05
2.69535e-07
1.8401e-05
2.38624e-07
1.84094e-05
2.3644e-07
1.84216e-05
2.33679e-07
1.84305e-05
2.31999e-07
1.84358e-05
2.08707e-07
1.84418e-05
1.97909e-07
1.84492e-05
1.83781e-07
1.84563e-05
1.76549e-07
1.84622e-05
1.60041e-07
1.84667e-05
1.48651e-07
1.33869e-07
1.84713e-05
1.92452e-05
-2.28389e-08
1.92384e-05
2.75036e-08
1.92396e-05
2.72903e-08
1.92497e-05
1.29961e-07
1.92474e-05
1.54689e-07
1.9241e-05
1.49784e-07
1.92492e-05
1.81457e-07
1.92674e-05
2.37438e-07
1.9277e-05
2.59992e-07
1.92805e-05
2.35115e-07
1.92876e-05
2.29294e-07
1.92988e-05
2.22476e-07
1.93086e-05
2.22239e-07
1.93151e-05
2.02199e-07
1.93212e-05
1.9185e-07
1.93283e-05
1.76677e-07