/*--------------------------------*- C++ -*----------------------------------*\
| =========                 |                                                 |
| \\      /  F ield         | OpenFOAM: The Open Source CFD Toolbox           |
|  \\    /   O peration     | Version:  2506                                  |
|   \\  /    A nd           | Website:  www.openfoam.com                      |
|    \\/     M anipulation  |                                                 |
\*---------------------------------------------------------------------------*/
FoamFile
{
    version     2.0;
    format      ascii;
    arch        "LSB;label=32;scalar=64";
    class       volVectorField;
    location    "7.15";
    object      U;
}
// * * * * * * * * * * * * * * * * * * * * * * * * * * * * * * * * * * * * * //

dimensions      [0 1 -1 0 0 0 0];

internalField   nonuniform List<vector> 
9600
(
(0.7489 0.00116681 0)
(1.36106 0.00785664 0)
(0.420281 -0.0142848 0)
(1.3467 0.0104659 0)
(0.853747 0.0117502 0)
(1.20747 0.00182924 0)
(0.665575 0.00219122 0)
(1.30111 0.00605268 0)
(0.641037 0.0097483 0)
(1.25554 0.0226782 0)
(0.774569 0.00787531 0)
(1.19649 0.0101279 0)
(0.799151 0.00618012 0)
(1.17959 0.0107569 0)
(0.816845 0.00720804 0)
(1.12843 0.0101473 0)
(0.826658 0.00557892 0)
(1.10401 0.00500146 0)
(0.833484 0.00392594 0)
(1.10845 0.00438778 0)
(0.753588 0.000139079 0)
(1.35662 0.0108087 0)
(0.439269 -0.0146167 0)
(1.34021 0.00741383 0)
(0.862242 0.0124352 0)
(1.20834 0.00461218 0)
(0.676282 0.000801609 0)
(1.2965 0.00662841 0)
(0.652151 0.00993244 0)
(1.24325 0.0216861 0)
(0.802766 0.00817842 0)
(1.17903 0.0102995 0)
(0.836077 0.00610624 0)
(1.14939 0.0106246 0)
(0.87128 0.00806505 0)
(1.07904 0.0100304 0)
(0.903429 0.00645218 0)
(1.02835 0.00424924 0)
(0.938082 0.00473432 0)
(0.994527 0.00272161 0)
(0.764126 -0.000702727 0)
(1.34735 0.0133899 0)
(0.481948 -0.0150206 0)
(1.32214 0.00413446 0)
(0.883293 0.0133709 0)
(1.20624 0.00659114 0)
(0.703808 -0.000615886 0)
(1.28261 0.00751039 0)
(0.691208 0.0100604 0)
(1.20795 0.0200466 0)
(0.861224 0.00876669 0)
(1.1399 0.0100813 0)
(0.900963 0.00636546 0)
(1.09852 0.0102737 0)
(0.941275 0.00941003 0)
(1.02756 0.00958768 0)
(0.961407 0.00740261 0)
(0.988596 0.00369493 0)
(0.97255 0.00498018 0)
(0.979604 0.00296339 0)
(0.781221 -0.00155691 0)
(1.33127 0.0154979 0)
(0.551363 -0.0152359 0)
(1.28663 0.00133294 0)
(0.917464 0.0140338 0)
(1.19678 0.00853298 0)
(0.752086 -0.00165024 0)
(1.2521 0.00809382 0)
(0.760886 0.0105768 0)
(1.15183 0.0181117 0)
(0.92999 0.00944442 0)
(1.09368 0.00959638 0)
(0.960584 0.00696262 0)
(1.05465 0.00974822 0)
(0.986322 0.0105483 0)
(1.0047 0.0094468 0)
(0.983159 0.00805839 0)
(0.982698 0.00369337 0)
(0.977623 0.005048 0)
(0.981443 0.00325334 0)
(0.805211 -0.0024649 0)
(1.30589 0.0172741 0)
(0.644119 -0.0151058 0)
(1.23145 -0.00134223 0)
(0.960306 0.0144255 0)
(1.17825 0.0103924 0)
(0.817193 -0.00234754 0)
(1.20342 0.00817084 0)
(0.844286 0.0116455 0)
(1.09303 0.0161045 0)
(0.984897 0.00995341 0)
(1.05877 0.00926523 0)
(0.99696 0.00755168 0)
(1.03055 0.00940407 0)
(1.00544 0.0113337 0)
(1.00161 0.00975156 0)
(0.9909 0.00859528 0)
(0.984935 0.00393538 0)
(0.980287 0.00514528 0)
(0.981205 0.00346891 0)
(0.835344 -0.00336874 0)
(1.26945 0.0185507 0)
(0.746945 -0.0145421 0)
(1.16194 -0.00380408 0)
(1.0024 0.0145058 0)
(1.15318 0.0120097 0)
(0.886426 -0.0025593 0)
(1.14409 0.00790938 0)
(0.917408 0.0128887 0)
(1.05059 0.0144353 0)
(1.01623 0.0101775 0)
(1.03996 0.00921908 0)
(1.01304 0.0080192 0)
(1.02098 0.00935168 0)
(1.01162 0.011863 0)
(1.0045 0.0102006 0)
(0.996345 0.00910942 0)
(0.988578 0.00428287 0)
(0.983251 0.0052906 0)
(0.981719 0.00375998 0)
(0.869073 -0.00421135 0)
(1.22303 0.0192328 0)
(0.842089 -0.0135533 0)
(1.09097 -0.00585361 0)
(1.03334 0.0142027 0)
(1.12653 0.0132849 0)
(0.945481 -0.00222134 0)
(1.08725 0.00757369 0)
(0.966233 0.0138671 0)
(1.02889 0.0133295 0)
(1.02773 0.0101832 0)
(1.03066 0.00935143 0)
(1.01768 0.00841577 0)
(1.01731 0.00943912 0)
(1.01307 0.0121917 0)
(1.00761 0.0105996 0)
(1.00116 0.00959002 0)
(0.992927 0.00474993 0)
(0.986372 0.00551287 0)
(0.983272 0.00419653 0)
(0.902288 -0.00492655 0)
(1.1715 0.019377 0)
(0.916631 -0.0122693 0)
(1.03271 -0.00742983 0)
(1.04693 0.0135083 0)
(1.1023 0.0141952 0)
(0.98653 -0.00144168 0)
(1.04388 0.00734085 0)
(0.990606 0.014379 0)
(1.01969 0.0126863 0)
(1.0273 0.0101053 0)
(1.0239 0.00952824 0)
(1.0168 0.00874521 0)
(1.01472 0.00952392 0)
(1.0125 0.0123738 0)
(1.00937 0.0109097 0)
(1.00473 0.0100074 0)
(0.997035 0.00531655 0)
(0.989648 0.00582026 0)
(0.985369 0.00475637 0)
(0.930888 -0.00547119 0)
(1.12193 0.019129 0)
(0.967028 -0.0108887 0)
(0.995278 -0.00850582 0)
(1.04374 0.0125191 0)
(1.08158 0.0147437 0)
(1.00972 -0.000402555 0)
(1.0177 0.00729161 0)
(0.998158 0.014497 0)
(1.01372 0.0123051 0)
(1.02145 0.0100297 0)
(1.01729 0.00966225 0)
(1.01355 0.00898576 0)
(1.01185 0.0095694 0)
(1.01074 0.0124573 0)
(1.00961 0.0111272 0)
(1.00679 0.0103316 0)
(1.0002 0.00592068 0)
(0.9928 0.00617922 0)
(0.987816 0.00540431 0)
(0.952571 -0.00583458 0)
(1.08048 0.0186498 0)
(0.996774 -0.00958581 0)
(0.978139 -0.00910215 0)
(1.02995 0.0113906 0)
(1.06365 0.0149515 0)
(1.01956 0.00071589 0)
(1.00582 0.00742383 0)
(0.997602 0.0144363 0)
(1.00729 0.0120564 0)
(1.01439 0.0099505 0)
(1.01152 0.00971335 0)
(1.00999 0.00915066 0)
(1.00908 0.00958341 0)
(1.00856 0.0124579 0)
(1.00886 0.011262 0)
(1.00764 0.0105485 0)
(1.00233 0.00650599 0)
(0.995584 0.00654992 0)
(0.990489 0.00609716 0)
(0.967405 -0.00603564 0)
(1.04997 0.0180618 0)
(1.01189 -0.00846512 0)
(0.975095 -0.0092995 0)
(1.01357 0.0102905 0)
(1.04787 0.0148669 0)
(1.02124 0.00174467 0)
(1.00254 0.00767044 0)
(0.995202 0.0143866 0)
(1.0013 0.0118828 0)
(1.00874 0.00982103 0)
(1.0077 0.00968341 0)
(1.0075 0.00926376 0)
(1.00713 0.00957401 0)
(1.00676 0.0123969 0)
(1.00782 0.0113434 0)
(1.00784 0.0106617 0)
(1.00372 0.00704127 0)
(0.99795 0.00690949 0)
(0.993249 0.00677426 0)
(0.976999 -0.00611004 0)
(1.02977 0.0174386 0)
(1.01799 -0.0075581 0)
(0.979018 -0.00921409 0)
(1.00058 0.00933839 0)
(1.03441 0.0145678 0)
(1.01883 0.00259654 0)
(1.00278 0.00794619 0)
(0.994015 0.0144271 0)
(0.997696 0.0117528 0)
(1.00582 0.00962231 0)
(1.00616 0.0095957 0)
(1.00655 0.00933884 0)
(1.00631 0.0095664 0)
(1.00578 0.0123107 0)
(1.00702 0.0113956 0)
(1.00788 0.0106885 0)
(1.00469 0.00751479 0)
(0.999972 0.00725089 0)
(0.995965 0.00737237 0)
(0.983233 -0.00609632 0)
(1.01724 0.0168198 0)
(1.01918 -0.00684301 0)
(0.984833 -0.00896033 0)
(0.993108 0.00858231 0)
(1.02366 0.0141526 0)
(1.01505 0.00327589 0)
(1.00352 0.00817953 0)
(0.994612 0.0145304 0)
(0.997198 0.0116448 0)
(1.00561 0.00937557 0)
(1.00643 0.00948043 0)
(1.00687 0.00939572 0)
(1.00644 0.00959373 0)
(1.00565 0.012218 0)
(1.00668 0.0114366 0)
(1.00801 0.010661 0)
(1.0055 0.00792061 0)
(1.00173 0.00756603 0)
(0.998514 0.00785838 0)
(0.987462 -0.00602608 0)
(1.00958 0.0162241 0)
(1.01815 -0.00627491 0)
(0.990015 -0.00863214 0)
(0.990337 0.00801517 0)
(1.01565 0.0137083 0)
(1.0115 0.00381545 0)
(1.00367 0.00833059 0)
(0.996286 0.0146254 0)
(0.998991 0.0115459 0)
(1.00718 0.00911331 0)
(1.0076 0.00937111 0)
(1.00785 0.00945541 0)
(1.00714 0.00966314 0)
(1.00612 0.0121241 0)
(1.00681 0.0114854 0)
(1.00833 0.0106167 0)
(1.00626 0.00824794 0)
(1.00327 0.00784484 0)
(1.00078 0.00823882 0)
(0.99044 -0.00592103 0)
(1.0048 0.0156582 0)
(1.01641 -0.00580914 0)
(0.993797 -0.00829348 0)
(0.990343 0.00759984 0)
(1.01004 0.0132833 0)
(1.00885 0.00425714 0)
(1.00321 0.00839208 0)
(0.998106 0.0146563 0)
(1.00167 0.011447 0)
(1.00933 0.008859 0)
(1.00889 0.00929491 0)
(1.00889 0.00952185 0)
(1.00799 0.00976226 0)
(1.00688 0.0120397 0)
(1.00726 0.0115447 0)
(1.00883 0.0105821 0)
(1.00699 0.00849625 0)
(1.0046 0.0080902 0)
(1.00271 0.00853745 0)
(0.992595 -0.0057936 0)
(1.00178 0.0151178 0)
(1.01472 -0.00540937 0)
(0.996274 -0.00797584 0)
(0.991481 0.00729051 0)
(1.00628 0.0128924 0)
(1.0072 0.00463482 0)
(1.00253 0.00838311 0)
(0.999517 0.0146015 0)
(1.00413 0.011341 0)
(1.01122 0.00862557 0)
(1.00981 0.00926314 0)
(1.00964 0.0095865 0)
(1.00872 0.00987963 0)
(1.00767 0.011969 0)
(1.00785 0.0115998 0)
(1.00941 0.0105683 0)
(1.00772 0.00869286 0)
(1.00575 0.00831252 0)
(1.0043 0.00877607 0)
(0.99424 -0.00565202 0)
(0.999843 0.0145962 0)
(1.01327 -0.00505086 0)
(0.997817 -0.00768737 0)
(0.992795 0.00704811 0)
(1.00378 0.0125335 0)
(1.00626 0.00496968 0)
(1.00197 0.00833178 0)
(1.00045 0.0144658 0)
(1.00594 0.0112285 0)
(1.0125 0.00841402 0)
(1.01024 0.0092736 0)
(1.00995 0.00964403 0)
(1.00917 0.0100011 0)
(1.0083 0.0119105 0)
(1.00842 0.0116308 0)
(1.01001 0.0105776 0)
(1.00844 0.00886663 0)
(1.00678 0.00850949 0)
(1.00566 0.00896852 0)
(0.995586 -0.00550244 0)
(0.998581 0.0140891 0)
(1.01206 -0.00471829 0)
(0.998774 -0.00742463 0)
(0.993876 0.00684792 0)
(1.00202 0.0122002 0)
(1.00568 0.00527138 0)
(1.00176 0.00825714 0)
(1.00114 0.014266 0)
(1.00712 0.0111187 0)
(1.01318 0.00821891 0)
(1.01024 0.00931904 0)
(1.00985 0.00969628 0)
(1.00933 0.0101072 0)
(1.00873 0.0118643 0)
(1.00895 0.0116275 0)
(1.01061 0.0105993 0)
(1.0092 0.00902437 0)
(1.00774 0.00867025 0)
(1.00686 0.00912304 0)
(0.9967 -0.00534915 0)
(0.997749 0.0135948 0)
(1.01105 -0.00440115 0)
(0.999361 -0.00718226 0)
(0.99462 0.00667438 0)
(1.00068 0.0118892 0)
(1.00528 0.0055368 0)
(1.00194 0.00816864 0)
(1.00177 0.0140199 0)
(1.00788 0.0110224 0)
(1.01339 0.00804116 0)
(1.00995 0.00939143 0)
(1.00944 0.00974596 0)
(1.0093 0.0101795 0)
(1.00901 0.0118252 0)
(1.00947 0.011595 0)
(1.0112 0.0106146 0)
(1.00999 0.00916922 0)
(1.00864 0.0087998 0)
(1.00794 0.00925373 0)
(0.997551 -0.0051945 0)
(0.997238 0.0131106 0)
(1.01023 -0.00409189 0)
(0.999694 -0.006951 0)
(0.995047 0.00651771 0)
(0.999666 0.0115968 0)
(1.00498 0.00576067 0)
(1.00244 0.00806975 0)
(1.00236 0.0137422 0)
(1.00837 0.0109489 0)
(1.01326 0.00788726 0)
(1.00951 0.00948025 0)
(1.00887 0.00979525 0)
(1.0092 0.0102052 0)
(1.0092 0.011781 0)
(1.00997 0.0115398 0)
(1.01176 0.0106093 0)
(1.01074 0.00930985 0)
(1.00942 0.00891583 0)
(1.00887 0.00937578 0)
(0.998118 -0.00503984 0)
(0.997 0.0126329 0)
(1.00962 -0.00378522 0)
(0.999869 -0.00672141 0)
(0.995226 0.00636736 0)
(0.998995 0.0113175 0)
(1.00477 0.00594199 0)
(1.00311 0.0079619 0)
(1.00283 0.0134473 0)
(1.00863 0.010904 0)
(1.01292 0.00775788 0)
(1.00907 0.00957264 0)
(1.00827 0.00984851 0)
(1.0091 0.0101804 0)
(1.00933 0.011721 0)
(1.01041 0.0114675 0)
(1.0122 0.0105746 0)
(1.01136 0.00944992 0)
(1.01002 0.00902658 0)
(1.0096 0.00948842 0)
(0.998438 -0.00488574 0)
(0.996981 0.0121584 0)
(1.00914 -0.00347862 0)
(0.999994 -0.00648608 0)
(0.995243 0.00621102 0)
(0.998679 0.011048 0)
(1.00462 0.00608166 0)
(1.00382 0.00785115 0)
(1.00307 0.0131447 0)
(1.00868 0.0108854 0)
(1.01246 0.00765173 0)
(1.00874 0.00965557 0)
(1.00774 0.0099115 0)
(1.00907 0.0101068 0)
(1.0094 0.0116414 0)
(1.01073 0.0113888 0)
(1.01246 0.0105113 0)
(1.0118 0.00958738 0)
(1.0104 0.00913506 0)
(1.01012 0.00957911 0)
(0.99858 -0.00473308 0)
(0.99712 0.0116848 0)
(1.00869 -0.0031707 0)
(1.00017 -0.0062389 0)
(0.995185 0.00604101 0)
(0.998648 0.0107857 0)
(1.00447 0.00618508 0)
(1.00449 0.00774542 0)
(1.00311 0.0128389 0)
(1.00859 0.0108852 0)
(1.01199 0.00756746 0)
(1.00855 0.00971364 0)
(1.00734 0.00998921 0)
(1.0091 0.00999481 0)
(1.00942 0.0115406 0)
(1.0109 0.0113185 0)
(1.01254 0.0104302 0)
(1.01204 0.00971613 0)
(1.0106 0.00925011 0)
(1.01046 0.00963735 0)
(0.998599 -0.00458209 0)
(0.997371 0.0112109 0)
(1.0082 -0.00286348 0)
(1.00044 -0.00597587 0)
(0.995125 0.00585016 0)
(0.998789 0.0105315 0)
(1.00426 0.00625837 0)
(1.00509 0.00764599 0)
(1.00304 0.0125367 0)
(1.00843 0.0108944 0)
(1.01157 0.00750303 0)
(1.00851 0.00973748 0)
(1.00708 0.0100835 0)
(1.00917 0.00986222 0)
(1.00943 0.0114156 0)
(1.01097 0.0112652 0)
(1.0125 0.0103415 0)
(1.01212 0.00982874 0)
(1.01066 0.00938395 0)
(1.01067 0.00966178 0)
(0.998529 -0.00443441 0)
(0.997699 0.0107401 0)
(1.00767 -0.00256152 0)
(1.0008 -0.0056969 0)
(0.995115 0.00563805 0)
(0.998999 0.0102876 0)
(1.00401 0.006307 0)
(1.00558 0.00755014 0)
(1.00294 0.0122429 0)
(1.00823 0.0108999 0)
(1.01123 0.00745892 0)
(1.00855 0.0097304 0)
(1.00692 0.0101937 0)
(1.00927 0.00972437 0)
(1.00944 0.0112699 0)
(1.01096 0.0112303 0)
(1.01239 0.0102494 0)
(1.01211 0.00991294 0)
(1.01064 0.00954226 0)
(1.0108 0.00966225 0)
(0.998391 -0.00429038 0)
(0.99807 0.0102746 0)
(1.00712 -0.00226772 0)
(1.0012 -0.00540139 0)
(0.995184 0.00540603 0)
(0.999207 0.0100549 0)
(1.00374 0.00633862 0)
(1.00597 0.00745339 0)
(1.00287 0.0119588 0)
(1.008 0.0108936 0)
(1.01098 0.00742755 0)
(1.00863 0.00969195 0)
(1.00681 0.0103122 0)
(1.00935 0.00959556 0)
(1.00949 0.0111121 0)
(1.0109 0.0112114 0)
(1.01226 0.0101583 0)
(1.01206 0.00995397 0)
(1.01058 0.00972368 0)
(1.01087 0.00966303 0)
(0.998217 -0.00414967 0)
(0.998442 0.00981392 0)
(1.00659 -0.00198365 0)
(1.0016 -0.00509104 0)
(0.995345 0.00515688 0)
(0.999377 0.00983209 0)
(1.00349 0.00635952 0)
(1.00625 0.00734913 0)
(1.00286 0.0116863 0)
(1.00775 0.0108788 0)
(1.0108 0.00740168 0)
(1.00871 0.00962308 0)
(1.00673 0.0104284 0)
(1.00941 0.00948201 0)
(1.00955 0.0109421 0)
(1.01083 0.011204 0)
(1.01213 0.0100825 0)
(1.01199 0.00994829 0)
(1.01052 0.00992294 0)
(1.01088 0.00970568 0)
(0.998042 -0.00401388 0)
(0.998767 0.00936106 0)
(1.00613 -0.00171235 0)
(1.00196 -0.00476911 0)
(0.995594 0.00489359 0)
(0.999496 0.00961848 0)
(1.0033 0.00637287 0)
(1.00643 0.00723158 0)
(1.0029 0.0114251 0)
(1.00746 0.0108605 0)
(1.01064 0.00738202 0)
(1.00878 0.00953477 0)
(1.00665 0.0105413 0)
(1.00942 0.00938387 0)
(1.00963 0.0107549 0)
(1.01075 0.0112057 0)
(1.01201 0.0100339 0)
(1.01195 0.00989321 0)
(1.01047 0.0101115 0)
(1.01085 0.00982855 0)
(0.997905 -0.00388073 0)
(0.999007 0.00891579 0)
(1.00574 -0.00145637 0)
(1.00226 -0.00443352 0)
(0.995914 0.00461877 0)
(0.999567 0.00940819 0)
(1.00316 0.00638655 0)
(1.00653 0.00710061 0)
(1.00297 0.0111701 0)
(1.00714 0.0108403 0)
(1.0105 0.00736845 0)
(1.00884 0.00943247 0)
(1.00656 0.0106537 0)
(1.00939 0.00930249 0)
(1.00972 0.010548 0)
(1.01067 0.0112127 0)
(1.01188 0.0100185 0)
(1.01193 0.00979111 0)
(1.01044 0.0102413 0)
(1.01079 0.0100418 0)
(0.997832 -0.00374963 0)
(0.99915 0.00847818 0)
(1.0054 -0.00121653 0)
(1.00251 -0.00408864 0)
(0.99628 0.00433935 0)
(0.999606 0.00919464 0)
(1.00305 0.00641019 0)
(1.00658 0.00694969 0)
(1.00307 0.0109126 0)
(1.00681 0.0108215 0)
(1.01035 0.0073629 0)
(1.00891 0.00931091 0)
(1.00646 0.0107665 0)
(1.00932 0.00924585 0)
(1.00982 0.0103224 0)
(1.01061 0.0112198 0)
(1.01173 0.0100452 0)
(1.01193 0.00966612 0)
(1.01047 0.0102741 0)
(1.01071 0.0103012 0)
(0.997833 -0.0036221 0)
(0.999206 0.00805141 0)
(1.00509 -0.000993949 0)
(1.00273 -0.0037384 0)
(0.996669 0.00405976 0)
(0.999628 0.00897331 0)
(1.00295 0.00645158 0)
(1.0066 0.00677991 0)
(1.00317 0.0106468 0)
(1.00648 0.0108044 0)
(1.01019 0.00736301 0)
(1.00899 0.00916231 0)
(1.00635 0.0108788 0)
(1.00921 0.00922816 0)
(1.00992 0.0100802 0)
(1.01056 0.0112145 0)
(1.01157 0.0101184 0)
(1.01194 0.00955668 0)
(1.01054 0.0102099 0)
(1.01064 0.0105245 0)
(0.997897 -0.00349536 0)
(0.999203 0.00763493 0)
(1.00478 -0.00079107 0)
(1.0029 -0.00338662 0)
(0.997061 0.00378428 0)
(0.999649 0.00873341 0)
(1.00284 0.00651589 0)
(1.00661 0.00660623 0)
(1.00327 0.010369 0)
(1.00616 0.0107901 0)
(1.01001 0.00736859 0)
(1.0091 0.00898129 0)
(1.00624 0.010979 0)
(1.00907 0.00925331 0)
(1.01002 0.00982382 0)
(1.01054 0.0111804 0)
(1.0114 0.0102256 0)
(1.01194 0.00948949 0)
(1.01066 0.010091 0)
(1.01061 0.0106455 0)
(0.998008 -0.00337159 0)
(0.999171 0.00723235 0)
(1.00446 -0.000606448 0)
(1.00305 -0.00304054 0)
(0.997446 0.003527 0)
(0.999675 0.00846478 0)
(1.00272 0.00659813 0)
(1.00663 0.0064375 0)
(1.00338 0.0100762 0)
(1.00586 0.0107825 0)
(1.00981 0.00739078 0)
(1.00922 0.00876767 0)
(1.00615 0.0110536 0)
(1.00889 0.00931851 0)
(1.01011 0.0095604 0)
(1.01055 0.0111106 0)
(1.01121 0.0103516 0)
(1.01192 0.00945527 0)
(1.0108 0.00996491 0)
(1.01063 0.0106536 0)
(0.998145 -0.00324972 0)
(0.999133 0.00684195 0)
(1.00412 -0.000435542 0)
(1.00317 -0.00270179 0)
(0.997818 0.00329303 0)
(0.99971 0.00816666 0)
(1.00257 0.00669222 0)
(1.00664 0.00628165 0)
(1.00349 0.00975682 0)
(1.00557 0.0107762 0)
(1.00959 0.00744387 0)
(1.00936 0.00852962 0)
(1.00608 0.0110968 0)
(1.00867 0.00942807 0)
(1.01019 0.00929877 0)
(1.01059 0.0109981 0)
(1.01101 0.0104982 0)
(1.01185 0.00943261 0)
(1.01093 0.00984026 0)
(1.0107 0.0105894 0)
(0.998292 -0.00312957 0)
(0.999101 0.0064648 0)
(1.00378 -0.000278508 0)
(1.00326 -0.0023811 0)
(0.998173 0.00308326 0)
(0.999754 0.00783545 0)
(1.00241 0.00678806 0)
(1.00664 0.0061432 0)
(1.00361 0.0094075 0)
(1.00529 0.0107588 0)
(1.00934 0.00753457 0)
(1.00951 0.00827231 0)
(1.00604 0.011097 0)
(1.00842 0.00959052 0)
(1.01026 0.0090591 0)
(1.01067 0.0108283 0)
(1.0108 0.0106735 0)
(1.01174 0.00943793 0)
(1.01106 0.00969237 0)
(1.01081 0.0104873 0)
(0.998437 -0.00301195 0)
(0.999081 0.00609859 0)
(1.00342 -0.000124431 0)
(1.00332 -0.00209349 0)
(0.99851 0.00291547 0)
(0.999806 0.00747707 0)
(1.00223 0.00687313 0)
(1.00662 0.00602978 0)
(1.00374 0.0090366 0)
(1.00504 0.0107124 0)
(1.00906 0.00765833 0)
(1.00967 0.00800191 0)
(1.00604 0.0110332 0)
(1.00813 0.00979834 0)
(1.01029 0.00886547 0)
(1.01079 0.0105801 0)
(1.0106 0.0108515 0)
(1.01158 0.00951795 0)
(1.01117 0.0095196 0)
(1.01096 0.010339 0)
(0.998576 -0.00289438 0)
(0.999071 0.00573984 0)
(1.00307 3.17987e-05 0)
(1.00336 -0.00184344 0)
(0.998826 0.00279519 0)
(0.999864 0.00710697 0)
(1.00205 0.00693676 0)
(1.00658 0.00595385 0)
(1.00388 0.00864907 0)
(1.0048 0.0106223 0)
(1.00875 0.00781239 0)
(1.00982 0.00773927 0)
(1.00609 0.0108926 0)
(1.00782 0.0100293 0)
(1.01026 0.00874186 0)
(1.01095 0.010256 0)
(1.01044 0.0109788 0)
(1.01134 0.00969279 0)
(1.01124 0.00936995 0)
(1.01114 0.010122 0)
(0.998706 -0.00277786 0)
(0.999068 0.00538716 0)
(1.00272 0.000193526 0)
(1.00338 -0.00163685 0)
(0.999122 0.002706 0)
(0.999926 0.0067347 0)
(1.00186 0.00696722 0)
(1.00651 0.00592367 0)
(1.00402 0.00826064 0)
(1.00459 0.0104858 0)
(1.00841 0.00799574 0)
(1.00995 0.00751095 0)
(1.00618 0.0106785 0)
(1.0075 0.0102577 0)
(1.01017 0.0087062 0)
(1.01113 0.00988799 0)
(1.01033 0.0110149 0)
(1.01106 0.00993357 0)
(1.01123 0.00930325 0)
(1.01134 0.0098553 0)
(0.998826 -0.00265939 0)
(0.99907 0.00503364 0)
(1.00236 0.000364755 0)
(1.00338 -0.00147376 0)
(0.999396 0.00263872 0)
(0.999989 0.00637672 0)
(1.00168 0.00695233 0)
(1.00642 0.00592601 0)
(1.00416 0.00789088 0)
(1.00441 0.010305 0)
(1.00804 0.00819422 0)
(1.01004 0.00733335 0)
(1.00633 0.0104046 0)
(1.00718 0.0104563 0)
(1.01001 0.00875688 0)
(1.01132 0.00951293 0)
(1.01029 0.0109439 0)
(1.01076 0.0101876 0)
(1.01113 0.00933896 0)
(1.01152 0.00959372 0)
(0.998938 -0.00253807 0)
(0.999076 0.0046755 0)
(1.00201 0.000553144 0)
(1.00336 -0.00135151 0)
(0.999651 0.00258204 0)
(1.00005 0.00604551 0)
(1.0015 0.00688713 0)
(1.00629 0.00594298 0)
(1.00429 0.00755064 0)
(1.00425 0.0100758 0)
(1.00765 0.00837953 0)
(1.01009 0.0072076 0)
(1.00651 0.0100847 0)
(1.00689 0.0106024 0)
(1.00976 0.0088801 0)
(1.01148 0.00916102 0)
(1.01032 0.0107683 0)
(1.01046 0.0104157 0)
(1.01094 0.00945859 0)
(1.01163 0.00939372 0)
(0.999041 -0.00241338 0)
(0.999085 0.00431085 0)
(1.00166 0.000756247 0)
(1.00333 -0.0012601 0)
(0.99989 0.00252064 0)
(1.00011 0.00575675 0)
(1.00133 0.00676698 0)
(1.00613 0.0059578 0)
(1.0044 0.00724535 0)
(1.00413 0.00980733 0)
(1.00725 0.00853602 0)
(1.01009 0.00713169 0)
(1.00673 0.00973388 0)
(1.00664 0.0106846 0)
(1.00945 0.00906578 0)
(1.01161 0.00885798 0)
(1.01044 0.0104903 0)
(1.0102 0.0105937 0)
(1.01068 0.00963779 0)
(1.01166 0.00928276 0)
(0.999135 -0.00228177 0)
(0.9991 0.0039353 0)
(1.0013 0.000967894 0)
(1.00327 -0.0011719 0)
(1.00012 0.00243718 0)
(1.00016 0.00552265 0)
(1.00117 0.00660579 0)
(1.00595 0.00595742 0)
(1.0045 0.00698257 0)
(1.00404 0.00952389 0)
(1.00685 0.00865923 0)
(1.01004 0.00709313 0)
(1.00696 0.009366 0)
(1.00644 0.0106957 0)
(1.00907 0.00930366 0)
(1.01166 0.00863811 0)
(1.01062 0.0101163 0)
(1.01001 0.0106852 0)
(1.01035 0.00985923 0)
(1.01158 0.00925379 0)
(0.99922 -0.00214458 0)
(0.999121 0.00355026 0)
(1.00096 0.00118852 0)
(1.00319 -0.00107987 0)
(1.00033 0.00231251 0)
(1.0002 0.00534144 0)
(1.00101 0.00643219 0)
(1.00576 0.00593428 0)
(1.00458 0.00676116 0)
(1.00397 0.00924271 0)
(1.00644 0.00874999 0)
(1.00992 0.00707898 0)
(1.00721 0.0089949 0)
(1.00631 0.0106292 0)
(1.00866 0.00955779 0)
(1.01162 0.00852593 0)
(1.01085 0.00967827 0)
(1.00991 0.0106405 0)
(1.00999 0.0100994 0)
(1.01138 0.00930037 0)
(0.999297 -0.00200007 0)
(0.99915 0.00315524 0)
(1.00061 0.00140877 0)
(1.00309 -0.000969967 0)
(1.00055 0.00214183 0)
(1.00024 0.00519895 0)
(1.00085 0.0062606 0)
(1.00555 0.00587574 0)
(1.00464 0.00656843 0)
(1.00393 0.00897543 0)
(1.00604 0.0088171 0)
(1.00975 0.00708508 0)
(1.00746 0.00862741 0)
(1.00625 0.0104897 0)
(1.00822 0.0097895 0)
(1.01147 0.00852473 0)
(1.01108 0.00924635 0)
(1.00993 0.0104363 0)
(1.00965 0.0103039 0)
(1.01108 0.00942031 0)
(0.999365 -0.00184771 0)
(0.99919 0.00275232 0)
(1.00028 0.00162032 0)
(1.00295 -0.000823159 0)
(1.00075 0.00192505 0)
(1.00029 0.00507187 0)
(1.00068 0.00611417 0)
(1.00533 0.00577316 0)
(1.00469 0.00637873 0)
(1.0039 0.00872393 0)
(1.00565 0.00886966 0)
(1.00953 0.00712152 0)
(1.0077 0.00827026 0)
(1.00626 0.0102831 0)
(1.0078 0.00997496 0)
(1.0112 0.00860699 0)
(1.01126 0.00888547 0)
(1.01006 0.0100961 0)
(1.00938 0.0104012 0)
(1.0107 0.00959065 0)
(0.999424 -0.00169002 0)
(0.999243 0.00235043 0)
(0.999974 0.00180698 0)
(1.00278 -0.000635672 0)
(1.00096 0.00166743 0)
(1.00035 0.00494145 0)
(1.0005 0.00600917 0)
(1.00509 0.00564388 0)
(1.00474 0.00617841 0)
(1.00391 0.00848269 0)
(1.00526 0.00890747 0)
(1.00923 0.00719173 0)
(1.00791 0.0079304 0)
(1.00634 0.0100017 0)
(1.0074 0.0100965 0)
(1.01084 0.00873408 0)
(1.01136 0.00862192 0)
(1.01026 0.00967958 0)
(1.00921 0.0103537 0)
(1.01029 0.00975948 0)
(0.999475 -0.00152681 0)
(0.999308 0.00195221 0)
(0.99969 0.00195883 0)
(1.00258 -0.000400474 0)
(1.00115 0.00138689 0)
(1.00042 0.00478825 0)
(1.00032 0.00595829 0)
(1.00483 0.00552546 0)
(1.00478 0.00595505 0)
(1.00394 0.00823041 0)
(1.00489 0.00893064 0)
(1.00888 0.00729488 0)
(1.00809 0.00762625 0)
(1.00649 0.00964496 0)
(1.00706 0.0101403 0)
(1.01041 0.00888307 0)
(1.01136 0.00845715 0)
(1.0105 0.00924671 0)
(1.00917 0.0101695 0)
(1.0099 0.00985765 0)
(0.999519 -0.00135966 0)
(0.999386 0.00156244 0)
(0.99944 0.00206698 0)
(1.00234 -0.000122264 0)
(1.00134 0.00112232 0)
(1.00053 0.00458911 0)
(1.00014 0.00595789 0)
(1.00454 0.0054478 0)
(1.00481 0.00570658 0)
(1.00401 0.00793922 0)
(1.00456 0.00892548 0)
(1.00847 0.00742614 0)
(1.0082 0.00738325 0)
(1.0067 0.00922624 0)
(1.00679 0.0100851 0)
(1.00993 0.00902754 0)
(1.01124 0.00838635 0)
(1.01073 0.00884111 0)
(1.00924 0.00988227 0)
(1.00959 0.0098518 0)
(0.999555 -0.00119197 0)
(0.999476 0.00119694 0)
(0.999233 0.00212021 0)
(1.00207 0.000193013 0)
(1.0015 0.000899686 0)
(1.00068 0.00433104 0)
(0.99998 0.00597118 0)
(1.00422 0.0054262 0)
(1.00482 0.00546869 0)
(1.00412 0.00760218 0)
(1.00427 0.00886912 0)
(1.00801 0.00756798 0)
(1.00823 0.00721361 0)
(1.00694 0.00877549 0)
(1.00661 0.00992054 0)
(1.00945 0.00912789 0)
(1.011 0.00839651 0)
(1.0109 0.00850126 0)
(1.00939 0.00952342 0)
(1.00938 0.00974859 0)
(0.999586 -0.00102936 0)
(0.999575 0.000868688 0)
(0.999074 0.00211062 0)
(1.00179 0.000542267 0)
(1.00163 0.000728315 0)
(1.00086 0.00401014 0)
(0.999849 0.00596835 0)
(1.00387 0.00546618 0)
(1.0048 0.00527204 0)
(1.00426 0.00721552 0)
(1.00405 0.00874509 0)
(1.00753 0.00770882 0)
(1.00817 0.0071226 0)
(1.00719 0.00833684 0)
(1.00652 0.00966957 0)
(1.00899 0.00915651 0)
(1.01067 0.0084488 0)
(1.01099 0.00825797 0)
(1.00959 0.00912402 0)
(1.00927 0.00955593 0)
(0.999613 -0.000876328 0)
(0.999678 0.000586322 0)
(0.998969 0.002033 0)
(1.0015 0.000900946 0)
(1.00172 0.000629515 0)
(1.00108 0.0036281 0)
(0.999766 0.00592257 0)
(1.00351 0.00556755 0)
(1.00473 0.00514552 0)
(1.00443 0.0068018 0)
(1.00389 0.0085382 0)
(1.00705 0.00781975 0)
(1.00802 0.00709534 0)
(1.00741 0.00792679 0)
(1.00652 0.00934837 0)
(1.00859 0.00911047 0)
(1.01029 0.00849346 0)
(1.01096 0.00811356 0)
(1.0098 0.00874013 0)
(1.00928 0.00927238 0)
(0.999637 -0.000736141 0)
(0.999782 0.000355161 0)
(0.998919 0.00189019 0)
(1.0012 0.00124425 0)
(1.00176 0.000617882 0)
(1.00133 0.00321382 0)
(0.999749 0.00580885 0)
(1.00313 0.00570323 0)
(1.0046 0.00509853 0)
(1.0046 0.00640522 0)
(1.00382 0.00825568 0)
(1.0066 0.00787597 0)
(1.00779 0.00712495 0)
(1.0076 0.00757385 0)
(1.00659 0.00897074 0)
(1.00826 0.0089964 0)
(1.00988 0.00850184 0)
(1.01083 0.00802498 0)
(1.00995 0.00841959 0)
(1.00937 0.0089037 0)
(0.999658 -0.000613338 0)
(0.999881 0.000177417 0)
(0.998922 0.00169223 0)
(1.00093 0.00155511 0)
(1.00175 0.000697416 0)
(1.00159 0.00280353 0)
(0.999808 0.00561313 0)
(1.00278 0.00584043 0)
(1.00442 0.00512451 0)
(1.00475 0.00605017 0)
(1.00382 0.00790694 0)
(1.00619 0.00785793 0)
(1.00749 0.00718452 0)
(1.00771 0.00730854 0)
(1.0067 0.00857235 0)
(1.008 0.00881816 0)
(1.00948 0.00848293 0)
(1.01062 0.00796058 0)
(1.01002 0.00819388 0)
(1.0095 0.00852831 0)
(0.999679 -0.000510553 0)
(0.99997 5.56384e-05 0)
(0.998973 0.00145848 0)
(1.00069 0.00180585 0)
(1.00169 0.000864631 0)
(1.00185 0.00243259 0)
(0.999949 0.00532353 0)
(1.00246 0.00594948 0)
(1.00419 0.00522492 0)
(1.00487 0.00576332 0)
(1.00388 0.00751661 0)
(1.00586 0.00775755 0)
(1.00716 0.00722622 0)
(1.00774 0.00710903 0)
(1.00684 0.00817655 0)
(1.00784 0.0085585 0)
(1.0091 0.0084175 0)
(1.01037 0.00788902 0)
(1.01001 0.00802264 0)
(1.0096 0.00821999 0)
(0.9997 -0.000423788 0)
(1.00005 -2.1221e-05 0)
(0.999066 0.00120808 0)
(1.00049 0.00198029 0)
(1.00158 0.00109607 0)
(1.00208 0.00213568 0)
(1.00017 0.00495106 0)
(1.00221 0.00598852 0)
(1.00391 0.00536079 0)
(1.00493 0.00555613 0)
(1.00397 0.00712188 0)
(1.0056 0.00759199 0)
(1.00681 0.00724594 0)
(1.0077 0.00696431 0)
(1.00696 0.00782019 0)
(1.00775 0.00825052 0)
(1.00876 0.0082938 0)
(1.01009 0.00780591 0)
(1.00994 0.0078486 0)
(1.00964 0.00797456 0)
(0.99972 -0.000370835 0)
(1.00011 -1.72386e-05 0)
(0.999191 0.000965122 0)
(1.00034 0.00208172 0)
(1.00143 0.00136695 0)
(1.00227 0.00196531 0)
(1.00044 0.00454142 0)
(1.00203 0.0059338 0)
(1.0036 0.00548721 0)
(1.00493 0.00542391 0)
(1.00409 0.00674367 0)
(1.00542 0.00735663 0)
(1.00647 0.00722284 0)
(1.00759 0.00685008 0)
(1.00705 0.00750356 0)
(1.00771 0.00792823 0)
(1.00849 0.0081169 0)
(1.00979 0.00771994 0)
(1.00982 0.00767912 0)
(1.00963 0.00775758 0)
(0.999746 -0.000315153 0)
(1.00015 -5.82084e-05 0)
(0.999332 0.000716939 0)
(1.00025 0.00210498 0)
(1.00127 0.00164358 0)
(1.0024 0.00193253 0)
(1.00075 0.0041304 0)
(1.00195 0.00575269 0)
(1.0033 0.00557121 0)
(1.00486 0.00534758 0)
(1.0042 0.00640662 0)
(1.00531 0.00706956 0)
(1.00617 0.00714499 0)
(1.00743 0.00675735 0)
(1.00711 0.00722197 0)
(1.0077 0.0075934 0)
(1.00828 0.00788356 0)
(1.00949 0.00760078 0)
(1.00966 0.00752343 0)
(1.0096 0.00752494 0)
(0.999764 -0.000284594 0)
(1.00018 -9.24158e-06 0)
(0.999498 0.000537574 0)
(1.00022 0.00206245 0)
(1.00112 0.0018737 0)
(1.00247 0.00198695 0)
(1.00106 0.00376295 0)
(1.00195 0.00546971 0)
(1.00304 0.00559218 0)
(1.00475 0.00529586 0)
(1.00429 0.00610998 0)
(1.00526 0.00675072 0)
(1.00591 0.00700378 0)
(1.00723 0.00666594 0)
(1.0071 0.00698671 0)
(1.00771 0.00725822 0)
(1.00813 0.00760349 0)
(1.00922 0.00742928 0)
(1.00946 0.00738102 0)
(1.00954 0.00729409 0)
(0.999791 -0.000272197 0)
(1.0002 0.000121511 0)
(0.999643 0.000430509 0)
(1.00023 0.00197444 0)
(1.00098 0.00203666 0)
(1.00248 0.00207926 0)
(1.00134 0.00346113 0)
(1.00201 0.00513272 0)
(1.00281 0.0055399 0)
(1.00459 0.00524956 0)
(1.00434 0.00585394 0)
(1.00524 0.00642695 0)
(1.0057 0.00681475 0)
(1.00702 0.00655489 0)
(1.00704 0.00679123 0)
(1.0077 0.00695488 0)
(1.00803 0.00729874 0)
(1.00901 0.00720395 0)
(1.00925 0.00722211 0)
(1.00944 0.00708322 0)
(0.999814 -0.000244823 0)
(1.0002 0.000178903 0)
(0.999781 0.000346792 0)
(1.00028 0.0018588 0)
(1.00086 0.00214129 0)
(1.00244 0.00218474 0)
(1.00157 0.00323542 0)
(1.00212 0.00477613 0)
(1.00264 0.00541667 0)
(1.00441 0.00519546 0)
(1.00434 0.005634 0)
(1.00524 0.00610796 0)
(1.00554 0.00658446 0)
(1.00681 0.0064094 0)
(1.00694 0.00660081 0)
(1.00766 0.00668463 0)
(1.00794 0.0069937 0)
(1.00883 0.00692828 0)
(1.00904 0.00700991 0)
(1.0093 0.00686468 0)
(0.999839 -0.000236666 0)
(1.00019 0.000269984 0)
(0.999898 0.000318657 0)
(1.00035 0.00173229 0)
(1.00077 0.00219087 0)
(1.00237 0.00228643 0)
(1.00175 0.00308636 0)
(1.00226 0.00443336 0)
(1.00253 0.00523032 0)
(1.00422 0.00511686 0)
(1.0043 0.00544778 0)
(1.00523 0.0058004 0)
(1.00542 0.00631906 0)
(1.00662 0.00623322 0)
(1.00681 0.00641055 0)
(1.00758 0.00643795 0)
(1.00783 0.00672528 0)
(1.00868 0.00665444 0)
(1.00886 0.00677154 0)
(1.00915 0.00664334 0)
(0.999863 -0.000226794 0)
(1.00018 0.00034382 0)
(0.999994 0.000323539 0)
(1.00043 0.00160482 0)
(1.00071 0.00219466 0)
(1.00229 0.00237124 0)
(1.00187 0.00298505 0)
(1.0024 0.00413052 0)
(1.00247 0.0050126 0)
(1.00404 0.00502155 0)
(1.00422 0.00530294 0)
(1.00522 0.00553834 0)
(1.00534 0.00604517 0)
(1.00644 0.00603336 0)
(1.00666 0.00622301 0)
(1.00748 0.00619347 0)
(1.00771 0.00646475 0)
(1.00852 0.00639249 0)
(1.00869 0.00651346 0)
(1.00899 0.00640199 0)
(0.999885 -0.000213461 0)
(1.00016 0.000394183 0)
(1.00007 0.00034398 0)
(1.00051 0.00149125 0)
(1.00067 0.00215904 0)
(1.00219 0.00243905 0)
(1.00195 0.00292335 0)
(1.00253 0.003873 0)
(1.00245 0.00478156 0)
(1.00389 0.00489338 0)
(1.00411 0.00515492 0)
(1.00516 0.00529271 0)
(1.00526 0.00575052 0)
(1.00629 0.00577432 0)
(1.0065 0.00600364 0)
(1.00736 0.00593365 0)
(1.00759 0.00616935 0)
(1.00836 0.0061123 0)
(1.00851 0.00623456 0)
(1.00883 0.00613338 0)
(0.999906 -0.000202756 0)
(1.00015 0.000436261 0)
(1.00012 0.000381106 0)
(1.00059 0.00139904 0)
(1.00066 0.00210114 0)
(1.0021 0.00247997 0)
(1.00199 0.00289002 0)
(1.00265 0.00364878 0)
(1.00246 0.00452774 0)