/*--------------------------------*- C++ -*----------------------------------*\
| =========                 |                                                 |
| \\      /  F ield         | OpenFOAM: The Open Source CFD Toolbox           |
|  \\    /   O peration     | Version:  2506                                  |
|   \\  /    A nd           | Website:  www.openfoam.com                      |
|    \\/     M anipulation  |                                                 |
\*---------------------------------------------------------------------------*/
FoamFile
{
    version     2.0;
    format      ascii;
    arch        "LSB;label=32;scalar=64";
    class       surfaceScalarField;
    location    "6.05";
    object      phi;
}
// * * * * * * * * * * * * * * * * * * * * * * * * * * * * * * * * * * * * * //

dimensions      [0 3 -1 0 0 0 0];

oriented        oriented;

internalField   nonuniform List<scalar> 
19000
(
1.17546e-06
-1.08114e-06
1.27389e-06
8.01395e-09
1.21998e-06
5.78395e-07
1.07516e-06
1.55688e-06
1.11722e-06
-1.53805e-06
1.23199e-06
-2.18032e-06
1.25285e-06
-1.23624e-06
1.23495e-06
1.43956e-07
1.21759e-06
1.65151e-07
1.19723e-06
3.34626e-07
1.19641e-06
-1.72897e-07
1.1667e-06
8.24546e-09
1.19497e-06
-2.11719e-07
1.19056e-06
-1.98542e-07
1.18816e-06
-1.11618e-07
1.18087e-06
6.76259e-08
1.17209e-06
1.96133e-08
1.17597e-06
2.17475e-07
1.17185e-06
1.96095e-07
2.75405e-07
1.1658e-06
1.23733e-06
-1.09421e-06
1.34119e-06
-9.58426e-08
1.28126e-06
6.38317e-07
1.17904e-06
1.6591e-06
1.19648e-06
-1.55548e-06
1.27394e-06
-2.25778e-06
1.30943e-06
-1.27173e-06
1.30263e-06
1.50751e-07
1.28213e-06
1.85658e-07
1.27278e-06
3.43978e-07
1.26889e-06
-1.69015e-07
1.24467e-06
3.24711e-08
1.26597e-06
-2.33025e-07
1.26561e-06
-1.98183e-07
1.2521e-06
-9.81032e-08
1.25575e-06
6.39708e-08
1.22687e-06
4.84964e-08
1.25115e-06
1.93199e-07
1.21858e-06
2.28667e-07
2.44961e-07
1.24902e-06
1.29707e-06
-1.10849e-06
1.41241e-06
-2.11183e-07
1.35839e-06
6.92335e-07
1.28774e-06
1.72975e-06
1.27104e-06
-1.53878e-06
1.31711e-06
-2.30385e-06
1.36468e-06
-1.3193e-06
1.37595e-06
1.3949e-07
1.35403e-06
2.07575e-07
1.3596e-06
3.38402e-07
1.34739e-06
-1.56805e-07
1.33268e-06
4.71876e-08
1.33928e-06
-2.39628e-07
1.34953e-06
-2.08431e-07
1.32362e-06
-7.21899e-08
1.33193e-06
5.56588e-08
1.2962e-06
8.42232e-08
1.30811e-06
1.81286e-07
1.29127e-06
2.45516e-07
2.46416e-07
1.28981e-06
1.3532e-06
-1.11759e-06
1.48136e-06
-3.39351e-07
1.4462e-06
7.27495e-07
1.40121e-06
1.77474e-06
1.34324e-06
-1.48081e-06
1.36042e-06
-2.32103e-06
1.41675e-06
-1.37563e-06
1.44942e-06
1.06823e-07
1.43292e-06
2.24066e-07
1.44714e-06
3.24189e-07
1.4272e-06
-1.36866e-07
1.41603e-06
5.83572e-08
1.41011e-06
-2.3371e-07
1.42354e-06
-2.21863e-07
1.40007e-06
-4.87211e-08
1.40191e-06
5.38234e-08
1.37491e-06
1.11224e-07
1.36994e-06
1.86255e-07
1.36375e-06
2.51707e-07
2.5549e-07
1.35467e-06
1.40601e-06
-1.11525e-06
1.54219e-06
-4.7553e-07
1.5388e-06
7.30883e-07
1.5103e-06
1.80324e-06
1.41221e-06
-1.38272e-06
1.4044e-06
-2.31321e-06
1.46622e-06
-1.43745e-06
1.51965e-06
5.34018e-08
1.51751e-06
2.26205e-07
1.53241e-06
3.09286e-07
1.50748e-06
-1.11931e-07
1.49284e-06
7.29882e-08
1.47822e-06
-2.19081e-07
1.48863e-06
-2.3228e-07
1.47508e-06
-3.51632e-08
1.4728e-06
5.61012e-08
1.45418e-06
1.29842e-07
1.44236e-06
1.98075e-07
1.43663e-06
2.5744e-07
2.6465e-07
1.42747e-06
1.45835e-06
-1.09792e-06
1.59385e-06
-6.11024e-07
1.63005e-06
6.94682e-07
1.61105e-06
1.82224e-06
1.48297e-06
-1.25465e-06
1.4523e-06
-2.28254e-06
1.5159e-06
-1.50106e-06
1.58772e-06
-1.8424e-08
1.60521e-06
2.08714e-07
1.61704e-06
2.97466e-07
1.58846e-06
-8.33557e-08
1.56737e-06
9.40756e-08
1.54526e-06
-1.96964e-07
1.55021e-06
-2.37237e-07
1.54515e-06
-3.01018e-08
1.54475e-06
5.65039e-08
1.53229e-06
1.42305e-07
1.51974e-06
2.10625e-07
1.51335e-06
2.63826e-07
2.74388e-07
1.50361e-06
1.51494e-06
-1.06664e-06
1.63997e-06
-7.36056e-07
1.71453e-06
6.20126e-07
1.70254e-06
1.83423e-06
1.5597e-06
-1.11182e-06
1.50846e-06
-2.23129e-06
1.56894e-06
-1.56154e-06
1.65584e-06
-1.05318e-07
1.69227e-06
1.72286e-07
1.70163e-06
2.88104e-07
1.66964e-06
-5.13737e-08
1.64254e-06
1.21178e-07
1.6127e-06
-1.67121e-07
1.61125e-06
-2.35788e-07
1.61067e-06
-2.95171e-08
1.61487e-06
5.23004e-08
1.609e-06
1.48176e-07
1.59872e-06
2.20897e-07
1.59344e-06
2.69106e-07
2.84144e-07
1.58369e-06
1.58024e-06
-1.02675e-06
1.68589e-06
-8.41711e-07
1.78819e-06
5.17831e-07
1.78519e-06
1.83723e-06
1.64274e-06
-9.69365e-07
1.57566e-06
-2.16421e-06
1.62764e-06
-1.61352e-06
1.7243e-06
-2.0197e-07
1.77506e-06
1.21518e-07
1.78437e-06
2.78797e-07
1.74989e-06
-1.68907e-08
1.7189e-06
1.52162e-07
1.68168e-06
-1.29896e-07
1.67327e-06
-2.27383e-07
1.67371e-06
-2.9957e-08
1.68178e-06
4.42296e-08
1.68318e-06
1.46784e-07
1.67739e-06
2.26686e-07
1.67529e-06
2.71204e-07
2.92133e-07
1.6673e-06
1.65598e-06
-9.85161e-07
1.73564e-06
-9.2137e-07
1.84977e-06
4.03705e-07
1.85977e-06
1.82722e-06
1.72949e-06
-8.39088e-07
1.65377e-06
-2.08849e-06
1.69306e-06
-1.65281e-06
1.79195e-06
-3.00863e-07
1.85109e-06
6.23779e-08
1.86256e-06
2.67334e-07
1.82779e-06
1.78754e-08
1.7959e-06
1.84052e-07
1.75305e-06
-8.70432e-08
1.73773e-06
-2.12066e-07
1.73683e-06
-2.90558e-08
1.74638e-06
3.46833e-08
1.75433e-06
1.38835e-07
1.7542e-06
2.26808e-07
1.75692e-06
2.68489e-07
2.96341e-07
1.75271e-06
1.74069e-06
-9.47126e-07
1.79148e-06
-9.72165e-07
1.90215e-06
2.93036e-07
1.92796e-06
1.80141e-06
1.81747e-06
-7.286e-07
1.7407e-06
-2.01172e-06
1.765e-06
-1.67711e-06
1.85783e-06
-3.93694e-07
1.91927e-06
9.35307e-10
1.9342e-06
2.52408e-07
1.90217e-06
4.99018e-08
1.87279e-06
2.13437e-07
1.82737e-06
-4.16258e-08
1.80613e-06
-1.90832e-07
1.80259e-06
-2.55097e-08
1.811e-06
2.6268e-08
1.82352e-06
1.26317e-07
1.82881e-06
2.21517e-07
1.83678e-06
2.60525e-07
2.95342e-07
1.83778e-06
1.83144e-06
-9.14815e-07
1.85512e-06
-9.9585e-07
1.95199e-06
1.96172e-07
1.99307e-06
1.76033e-06
1.90584e-06
-6.41369e-07
1.83389e-06
-1.93976e-06
1.84259e-06
-1.68581e-06
1.92234e-06
-4.73449e-07
1.98061e-06
-5.73333e-08
1.99926e-06
2.33764e-07
1.97281e-06
7.63511e-08
1.94916e-06
2.37084e-07
1.90497e-06
2.56353e-09
1.87981e-06
-1.65671e-07
1.87335e-06
-1.90485e-08
1.87859e-06
2.10218e-08
1.89306e-06
1.1185e-07
1.90228e-06
2.12301e-07
1.91447e-06
2.48328e-07
2.88876e-07
1.92094e-06
1.92593e-06
-8.87903e-07
1.92818e-06
-9.981e-07
2.00707e-06
1.17282e-07
2.05968e-06
1.70772e-06
1.99516e-06
-5.76853e-07
1.93129e-06
-1.87589e-06
1.92534e-06
-1.67986e-06
1.98794e-06
-5.36052e-07
2.03883e-06
-1.08219e-07
2.06038e-06
2.12214e-07
2.04114e-06
9.55925e-08
2.02541e-06
2.52812e-07
1.98608e-06
4.18883e-08
1.95965e-06
-1.39236e-07
1.95095e-06
-1.03497e-08
1.95198e-06
1.99929e-08
1.96578e-06
9.8053e-08
1.9767e-06
2.01378e-07
1.99098e-06
2.34047e-07
2.77973e-07
2.00188e-06
2.02328e-06
-8.64997e-07
2.01146e-06
-9.86278e-07
2.07305e-06
5.56963e-08
2.13215e-06
1.64861e-06
2.08665e-06
-5.31349e-07
2.03168e-06
-1.82093e-06
2.01351e-06
-1.66169e-06
2.05845e-06
-5.80985e-07
2.09955e-06
-1.49321e-07
2.12233e-06
1.89432e-07
2.11018e-06
1.07744e-07
2.10285e-06
2.60143e-07
2.07094e-06
7.37948e-08
2.04591e-06
-1.14209e-07
2.03635e-06
-7.89741e-10
2.03332e-06
2.30245e-08
2.04448e-06
8.6895e-08
2.05484e-06
1.91016e-07
2.06864e-06
2.20246e-07
2.64593e-07
2.08202e-06
2.12373e-06
-8.44728e-07
2.10447e-06
-9.67015e-07
2.1518e-06
8.36166e-09
2.21317e-06
1.58724e-06
2.18156e-06
-4.99735e-07
2.13464e-06
-1.77401e-06
2.10758e-06
-1.63463e-06
2.13723e-06
-6.10635e-07
2.16809e-06
-1.80176e-07
2.19018e-06
1.67344e-07
2.18357e-06
1.14352e-07
2.1835e-06
2.60211e-07
2.15993e-06
9.73632e-08
2.13829e-06
-9.2566e-08
2.12948e-06
8.01792e-09
2.12362e-06
2.88871e-08
2.13135e-06
7.91588e-08
2.13961e-06
1.82764e-07
2.15082e-06
2.09033e-07
2.5089e-07
2.16452e-06
2.22792e-06
-8.26158e-07
2.20577e-06
-9.44864e-07
2.24217e-06
-2.80425e-08
2.30337e-06
1.52604e-06
2.28089e-06
-4.77254e-07
2.24036e-06
-1.73347e-06
2.20763e-06
-1.6019e-06
2.22575e-06
-6.28764e-07
2.24747e-06
-2.01889e-07
2.26743e-06
1.47384e-07
2.26435e-06
1.17426e-07
2.26957e-06
2.54992e-07
2.25374e-06
1.13193e-07
2.23628e-06
-7.51073e-08
2.2295e-06
1.47984e-08
2.22253e-06
3.58559e-08
2.22729e-06
7.44011e-08
2.23313e-06
1.76929e-07
2.24079e-06
2.01366e-07
2.38436e-07
2.25325e-06
2.33643e-06
-8.08715e-07
2.31385e-06
-9.22279e-07
2.34191e-06
-5.61086e-08
2.40213e-06
1.46583e-06
2.38532e-06
-4.60451e-07
2.34942e-06
-1.69757e-06
2.31337e-06
-1.56585e-06
2.32362e-06
-6.39014e-07
2.33814e-06
-2.16415e-07
2.35542e-06
1.30107e-07
2.35432e-06
1.18531e-07
2.36289e-06
2.46412e-07
2.35333e-06
1.22755e-07
2.33973e-06
-6.15e-08
2.3355e-06
1.90276e-08
2.32889e-06
4.24593e-08
2.33176e-06
7.15306e-08
2.33599e-06
1.72704e-07
2.34041e-06
1.96945e-07
2.27829e-07
2.35102e-06
2.44966e-06
-7.91983e-07
2.42768e-06
-9.00291e-07
2.44925e-06
-7.76821e-08
2.50862e-06
1.40646e-06
2.49532e-06
-4.47151e-07
2.46252e-06
-1.66477e-06
2.42452e-06
-1.52785e-06
2.42964e-06
-6.44133e-07
2.43909e-06
-2.25868e-07
2.45391e-06
1.15291e-07
2.454e-06
1.18436e-07
2.46457e-06
2.3584e-07
2.45966e-06
1.27666e-07
2.44892e-06
-5.07536e-08
2.44698e-06
2.09674e-08
2.4415e-06
4.79356e-08
2.44346e-06
6.95751e-08
2.44728e-06
1.68879e-07
2.44955e-06
1.94679e-07
2.18891e-07
2.45849e-06
2.56789e-06
-7.75583e-07
2.54682e-06
-8.79218e-07
2.56334e-06
-9.41979e-08
2.62236e-06
1.34744e-06
2.61122e-06
-4.36005e-07
2.58033e-06
-1.63388e-06
2.54103e-06
-1.48855e-06
2.54281e-06
-6.45907e-07
2.54905e-06
-2.32113e-07
2.56202e-06
1.02321e-07
2.56316e-06
1.17295e-07
2.57494e-06
2.24067e-07
2.57334e-06
1.29262e-07
2.56438e-06
-4.1796e-08
2.56398e-06
2.13708e-08
2.55971e-06
5.22042e-08
2.56118e-06
6.81047e-08
2.56548e-06
1.64585e-07
2.5668e-06
1.93357e-07
2.11175e-07
2.57452e-06
2.6914e-06
-7.59159e-07
2.67129e-06
-8.59104e-07
2.68399e-06
-1.06901e-07
2.74322e-06
1.28821e-06
2.7333e-06
-4.26086e-07
2.7034e-06
-1.60399e-06
2.66312e-06
-1.44827e-06
2.66263e-06
-6.45422e-07
2.66714e-06
-2.3662e-07
2.67892e-06
9.05433e-08
2.68119e-06
1.15017e-07
2.69373e-06
2.11532e-07
2.6945e-06
1.28489e-07
2.68653e-06
-3.38259e-08
2.68682e-06
2.10788e-08
2.68348e-06
5.55483e-08
2.68442e-06
6.71681e-08
2.68941e-06
1.59595e-07
2.69065e-06
1.92113e-07
2.04364e-07
2.69746e-06
2.82052e-06
-7.42414e-07
2.80133e-06
-8.3991e-07
2.81129e-06
-1.16856e-07
2.87116e-06
1.22833e-06
2.8618e-06
-4.16719e-07
2.8322e-06
-1.57439e-06
2.7911e-06
-1.40717e-06
2.78899e-06
-6.43309e-07
2.79284e-06
-2.40467e-07
2.80394e-06
7.94444e-08
2.80742e-06
1.11531e-07
2.82044e-06
1.98519e-07
2.82291e-06
1.26017e-07
2.81551e-06
-2.6421e-08
2.81583e-06
2.07514e-08
2.81307e-06
5.83106e-08
2.81327e-06
6.69699e-08
2.81869e-06
1.54178e-07
2.82026e-06
1.90541e-07
1.98373e-07
2.82625e-06
2.95563e-06
-7.25144e-07
2.93731e-06
-8.21591e-07
2.94533e-06
-1.24879e-07
3.00618e-06
1.16748e-06
2.99691e-06
-4.07445e-07
2.9671e-06
-1.54458e-06
2.92537e-06
-1.36544e-06
2.92198e-06
-6.39915e-07
2.92589e-06
-2.44379e-07
2.93665e-06
6.86825e-08
2.94131e-06
1.06869e-07
2.95459e-06
1.85244e-07
2.95826e-06
1.22342e-07
2.95127e-06
-1.94289e-08
2.95124e-06
2.07766e-08
2.94881e-06
6.07454e-08
2.94816e-06
6.7623e-08
2.95358e-06
1.48752e-07
2.95555e-06
1.88568e-07
1.93239e-07
2.96069e-06
3.09709e-06
-7.07229e-07
3.07962e-06
-8.04117e-07
3.08625e-06
-1.31508e-07
3.14824e-06
1.10549e-06
3.1388e-06
-3.98011e-07
3.10847e-06
-1.51425e-06
3.06628e-06
-1.32325e-06
3.06176e-06
-6.35396e-07
3.06617e-06
-2.48789e-07
3.0768e-06
5.80519e-08
3.08252e-06
1.01149e-07
3.09589e-06
1.71878e-07
3.10038e-06
1.17851e-07
3.09378e-06
-1.2828e-08
3.09323e-06
2.13181e-08
3.09097e-06
6.30122e-08
3.08951e-06
6.90774e-08
3.09463e-06
1.43635e-07
3.09693e-06
1.86268e-07
1.88979e-07
3.10119e-06
3.24528e-06
-6.88602e-07
3.22865e-06
-7.87487e-07
3.2342e-06
-1.37056e-07
3.29735e-06
1.04235e-06
3.28767e-06
-3.88333e-07
3.25661e-06
-1.48319e-06
3.2142e-06
-1.28084e-06
3.2086e-06
-6.29794e-07
3.2137e-06
-2.53891e-07
3.22431e-06
4.74436e-08
3.23093e-06
9.45316e-08
3.24427e-06
1.58532e-07
3.24927e-06
1.12856e-07
3.24308e-06
-6.64225e-09
3.242e-06
2.24037e-08
3.23982e-06
6.51925e-08
3.2377e-06
7.11921e-08
3.24238e-06
1.38961e-07
3.24494e-06
1.837e-07
1.85567e-07
3.24836e-06
3.40055e-06
-6.69224e-07
3.38479e-06
-7.71724e-07
3.38944e-06
-1.41702e-07
3.4536e-06
9.78183e-07
3.44372e-06
-3.78447e-07
3.41182e-06
-1.4513e-06
3.36948e-06
-1.2385e-06
3.3628e-06
-6.23111e-07
3.36861e-06
-2.59705e-07
3.37924e-06
3.68119e-08
3.38656e-06
8.72086e-08
3.39983e-06
1.45262e-07
3.40509e-06
1.07596e-07
3.39934e-06
-8.92411e-10
3.39779e-06
2.39585e-08
3.39565e-06
6.73337e-08
3.39305e-06
7.37894e-08
3.39727e-06
1.34745e-07
3.40012e-06
1.80842e-07
1.82892e-07
3.4028e-06
3.56325e-06
-6.49065e-07
3.54838e-06
-7.56851e-07
3.55226e-06
-1.45582e-07
3.61719e-06
9.13252e-07
3.60721e-06
-3.6847e-07
3.57442e-06
-1.41851e-06
3.53245e-06
-1.19653e-06
3.52469e-06
-6.15352e-07
3.53111e-06
-2.66126e-07
3.54178e-06
2.6149e-08
3.5496e-06
7.93823e-08
3.56277e-06
1.32095e-07
3.56813e-06
1.02231e-07
3.56281e-06
4.4294e-09
3.56092e-06
2.58489e-08
3.55883e-06
6.94258e-08
3.55592e-06
7.67031e-08
3.55969e-06
1.30973e-07
3.56293e-06
1.77597e-07
1.80763e-07
3.56506e-06
3.73374e-06
-6.28102e-07
3.71975e-06
-7.42855e-07
3.72301e-06
-1.48845e-07
3.78837e-06
8.47887e-07
3.77849e-06
-3.58589e-07
3.74473e-06
-1.38474e-06
3.70342e-06
-1.15522e-06
3.69462e-06
-6.06551e-07
3.70148e-06
-2.72988e-07
3.71218e-06
1.54528e-08
3.7203e-06
7.12598e-08
3.73335e-06
1.19045e-07
3.73875e-06
9.68334e-08
3.7338e-06
9.37527e-09
3.73174e-06
2.79137e-08
3.72976e-06
7.13996e-08
3.72666e-06
7.98036e-08
3.73002e-06
1.27615e-07
3.73374e-06
1.73882e-07
1.7891e-07
3.73559e-06
3.91242e-06
-6.06332e-07
3.89922e-06
-7.29653e-07
3.90205e-06
-1.51673e-07
3.96748e-06
7.82451e-07
3.95793e-06
-3.49038e-07
3.92313e-06
-1.34994e-06
3.8827e-06
-1.11479e-06
3.87292e-06
-5.96769e-07
3.88003e-06
-2.80097e-07
3.89078e-06
4.69659e-09
3.89899e-06
6.30504e-08
3.91193e-06
1.06108e-07
3.91735e-06
9.1414e-08
3.91269e-06
1.40371e-08
3.9106e-06
3.0001e-08
3.90885e-06
7.31511e-08
3.9057e-06
8.29516e-08
3.90864e-06
1.24678e-07
3.91283e-06
1.69693e-07
1.76989e-07
3.91475e-06
4.09971e-06
-5.83789e-07
4.08714e-06
-7.17087e-07
4.08973e-06
-1.54266e-07
4.15488e-06
7.17301e-07
4.14592e-06
-3.40078e-07
4.11005e-06
-1.31407e-06
4.07062e-06
-1.07535e-06
4.05993e-06
-5.86084e-07
4.0671e-06
-2.87265e-07
4.07797e-06
-6.17899e-09
4.08607e-06
5.49578e-08
4.0989e-06
9.32754e-08
4.10436e-06
8.59483e-08
4.09988e-06
1.85176e-08
4.09786e-06
3.20272e-08
4.09646e-06
7.45507e-08
4.09339e-06
8.60203e-08
4.09593e-06
1.22139e-07
4.10048e-06
1.6514e-07
1.7471e-07
4.10276e-06
4.29606e-06
-5.60544e-07
4.28391e-06
-7.04941e-07
4.28645e-06
-1.56809e-07
4.351e-06
6.5276e-07
4.34287e-06
-3.31956e-07
4.30594e-06
-1.27714e-06
4.26754e-06
-1.03696e-06
4.25602e-06
-5.74568e-07
4.26308e-06
-2.94321e-07
4.27416e-06
-1.72602e-08
4.28194e-06
4.71735e-08
4.29466e-06
8.05573e-08
4.30024e-06
8.03681e-08
4.29581e-06
2.29491e-08
4.29387e-06
3.39725e-08
4.29293e-06
7.5486e-08
4.29005e-06
8.88988e-08
4.29224e-06
1.19955e-07
4.29703e-06
1.60349e-07
1.71937e-07
4.2998e-06
4.50193e-06
-5.36703e-07
4.48998e-06
-6.92988e-07
4.49262e-06
-1.59445e-07
4.55627e-06
5.8911e-07
4.54918e-06
-3.2487e-07
4.51126e-06
-1.23922e-06
4.47389e-06
-9.99583e-07
4.4616e-06
-5.62276e-07
4.4684e-06
-3.01121e-07
4.47978e-06
-2.86385e-08
4.48709e-06
3.98585e-08
4.49964e-06
6.80059e-08
4.50544e-06
7.45696e-08
4.50094e-06
2.74479e-08
4.49902e-06
3.58938e-08
4.49861e-06
7.58981e-08
4.49602e-06
9.14935e-08
4.49789e-06
1.18079e-07
4.50284e-06
1.55401e-07
1.68651e-07
4.50612e-06
4.7178e-06
-5.12388e-07
4.70585e-06
-6.81039e-07
4.70865e-06
-1.62247e-07
4.77118e-06
5.26583e-07
4.76525e-06
-3.18939e-07
4.72649e-06
-1.20046e-06
4.69013e-06
-9.63228e-07
4.67711e-06
-5.49252e-07
4.68352e-06
-3.07534e-07
4.69528e-06
-4.03947e-08
4.70202e-06
3.312e-08
4.71427e-06
5.57519e-08
4.72041e-06
6.84294e-08
4.71584e-06
3.20196e-08
4.71377e-06
3.79649e-08
4.71392e-06
7.5749e-08
4.71174e-06
9.36672e-08
4.71326e-06
1.16558e-07
4.71841e-06
1.50259e-07
1.64907e-07
4.72215e-06
4.94413e-06
-4.87716e-07
4.93206e-06
-6.68978e-07
4.93503e-06
-1.65212e-07
4.99625e-06
4.65365e-07
4.9915e-06
-3.14193e-07
4.95207e-06
-1.16103e-06
4.91678e-06
-9.27934e-07
4.90303e-06
-5.35506e-07
4.90894e-06
-3.13438e-07
4.92114e-06
-5.25963e-08
4.92726e-06
2.69962e-08
4.939e-06
4.40175e-08
4.94561e-06
6.18122e-08
4.94108e-06
3.65508e-08
4.93864e-06
4.04095e-08
4.9394e-06
7.49872e-08
4.93781e-06
9.52545e-08
4.93892e-06
1.15451e-07
4.9441e-06
1.45072e-07
1.60648e-07
4.94836e-06
5.18139e-06
-4.62791e-07
5.16918e-06
-6.56767e-07
5.17222e-06
-1.6825e-07
5.232e-06
4.0558e-07
5.2284e-06
-3.10587e-07
5.1885e-06
-1.12113e-06
5.15435e-06
-8.93793e-07
5.13992e-06
-5.21067e-07
5.14514e-06
-3.18659e-07
5.15784e-06
-6.53023e-08
5.16341e-06
2.14263e-08
5.17432e-06
3.31129e-08
5.18152e-06
5.4605e-08
5.17728e-06
4.0794e-08
5.17431e-06
4.33802e-08
5.17549e-06
7.38121e-08
5.17477e-06
9.59668e-08
5.17544e-06
1.1478e-07
5.18037e-06
1.4015e-07
1.55732e-07
5.18528e-06
5.43009e-06
-4.37696e-07
5.41778e-06
-6.44452e-07
5.42071e-06
-1.71184e-07
5.47901e-06
3.47286e-07
5.47646e-06
-3.08035e-07
5.43625e-06
-1.08092e-06
5.40339e-06
-8.6093e-07
5.38832e-06
-5.05994e-07
5.39264e-06
-3.22983e-07
5.40588e-06
-7.85419e-08
5.41107e-06
1.62349e-08
5.42079e-06
2.33923e-08
5.42868e-06
4.67189e-08
5.425e-06
4.44747e-08
5.42146e-06
4.69208e-08
5.42279e-06
7.24758e-08
5.42303e-06
9.57303e-08
5.4235e-06
1.14314e-07
5.42784e-06
1.35802e-07
1.50241e-07
5.43334e-06
5.69076e-06
-4.12496e-07
5.67844e-06
-6.32131e-07
5.68103e-06
-1.73778e-07
5.73783e-06
2.90486e-07
5.73622e-06
-3.06424e-07
5.69586e-06
-1.04056e-06
5.66441e-06
-8.29484e-07
5.64882e-06
-4.90401e-07
5.65199e-06
-3.26157e-07
5.66574e-06
-9.22935e-08
5.67081e-06
1.11648e-08
5.67907e-06
1.51375e-08
5.68755e-06
3.8239e-08
5.68477e-06
4.72545e-08
5.68071e-06
5.09786e-08
5.68192e-06
7.12689e-08
5.68305e-06
9.4601e-08
5.68364e-06
1.13725e-07
5.68724e-06
1.32196e-07
1.44512e-07
5.69297e-06
5.96394e-06
-3.87248e-07
5.95175e-06
-6.19934e-07
5.95375e-06
-1.75777e-07
6.00909e-06
2.35143e-07
6.00828e-06
-3.05619e-07
5.96779e-06
-1.00007e-06
5.93794e-06
-7.99639e-07
5.92203e-06
-4.74485e-07
5.92379e-06
-3.27922e-07
5.93794e-06
-1.06438e-07
5.94321e-06
5.8886e-09
5.94983e-06
8.51772e-09
5.95865e-06
2.94162e-08
5.95714e-06
4.87701e-08
5.95273e-06
5.53874e-08
5.95349e-06
7.05077e-08
5.95535e-06
9.27427e-08
5.9564e-06
1.12679e-07
5.95928e-06
1.29313e-07
1.38963e-07
5.96483e-06
6.25025e-06
-3.62006e-07
6.23832e-06
-6.08008e-07
6.23952e-06
-1.76978e-07
6.29337e-06
1.81298e-07
6.29334e-06
-3.05594e-07
6.25257e-06
-9.59297e-07
6.22449e-06
-7.71555e-07
6.20856e-06
-4.58558e-07
6.20867e-06
-3.28032e-07
6.223e-06
-1.20763e-07
6.2288e-06
8.58031e-11
6.23378e-06
3.53558e-09
6.24254e-06
2.06553e-08
6.24267e-06
4.86376e-08
6.23812e-06
5.99395e-08
6.23817e-06
7.04583e-08
6.24052e-06
9.03908e-08
6.24227e-06
1.10928e-07
6.24468e-06
1.26904e-07
1.33989e-07
6.24966e-06
6.5503e-06
-3.36836e-07
6.53877e-06
-5.96478e-07
6.53917e-06
-1.77379e-07
6.59119e-06
1.2928e-07
6.59213e-06
-3.06532e-07
6.55087e-06
-9.18045e-07
6.52455e-06
-7.45229e-07
6.50904e-06
-4.43051e-07
6.50734e-06
-3.26329e-07
6.52151e-06
-1.34929e-07
6.52809e-06
-6.50119e-09
6.53162e-06
5.36391e-12
6.53987e-06
1.24064e-08
6.54182e-06
4.66934e-08
6.53749e-06
6.4263e-08
6.53665e-06
7.12974e-08
6.53921e-06
8.78332e-08
6.54178e-06
1.08361e-07
6.54411e-06
1.24575e-07
1.29764e-07
6.54833e-06
6.86478e-06
-3.11822e-07
6.85372e-06
-5.85426e-07
6.85349e-06
-1.77144e-07
6.90306e-06
7.97088e-08
6.90532e-06
-3.08793e-07
6.86348e-06
-8.76204e-07
6.83865e-06
-7.20393e-07
6.82408e-06
-4.28488e-07
6.82053e-06
-3.22781e-07
6.83413e-06
-1.48521e-07
6.84164e-06
-1.40186e-08
6.84402e-06
-2.36647e-09
6.85137e-06
5.05332e-09
6.85506e-06
4.30058e-08
6.85141e-06
6.7911e-08
6.84966e-06
7.30499e-08
6.85207e-06
8.54179e-08
6.85547e-06
1.04961e-07
6.85807e-06
1.21981e-07
1.26189e-07
6.86164e-06
7.19439e-06
-2.87077e-07
7.18384e-06
-5.74874e-07
7.18326e-06
-1.76569e-07
7.22952e-06
3.34509e-08
7.23358e-06
-3.12852e-07
7.19127e-06
-8.3389e-07
7.16741e-06
-6.96536e-07
7.15424e-06
-4.1532e-07
7.14904e-06
-3.17579e-07
7.16158e-06
-1.61061e-07
7.17001e-06
-2.24455e-08
7.17161e-06
-3.96879e-09
7.17777e-06
-1.10695e-09
7.18295e-06
3.78272e-08
7.18043e-06
7.04337e-08
7.17791e-06
7.5562e-08
7.1798e-06
8.35327e-08
7.18394e-06
1.00815e-07
7.1871e-06
1.1882e-07
1.23028e-07
7.19027e-06
7.5399e-06
-2.6275e-07
7.52979e-06
-5.64761e-07
7.52928e-06
-1.76062e-07
7.57124e-06
-8.51089e-09
7.57749e-06
-3.19105e-07
7.53514e-06
-7.91535e-07
7.51157e-06
-6.72971e-07
7.50011e-06
-4.03853e-07
7.49359e-06
-3.1106e-07
7.50465e-06
-1.72126e-07
7.51383e-06
-3.16279e-08
7.51503e-06
-5.16815e-09
7.51982e-06
-5.89211e-09
7.52608e-06
3.1568e-08
7.52512e-06
7.13922e-08
7.5221e-06
7.85812e-08
7.52319e-06
8.24395e-08
7.5278e-06
9.62091e-08
7.5318e-06
1.14818e-07
1.2002e-07
7.53481e-06
7.90208e-06
-2.39023e-07
7.89215e-06
-5.54828e-07
7.89231e-06
-1.76221e-07
7.92904e-06
-4.52427e-08
7.9376e-06
-3.27665e-07
7.896e-06
-7.49935e-07
7.87197e-06
-6.48942e-07
7.86226e-06
-3.94136e-07
7.8549e-06
-3.03699e-07
7.86414e-06
-1.81364e-07
7.87381e-06
-4.13062e-08
7.87491e-06
-6.25949e-09
7.87824e-06
-9.23153e-09
7.88517e-06
2.46438e-08
7.886e-06
7.05631e-08
7.88291e-06
8.16735e-08
7.88307e-06
8.22736e-08
7.88773e-06
9.1546e-08
7.8927e-06
1.09854e-07
1.1687e-07
7.89585e-06
8.28177e-06
-2.16116e-07
8.27154e-06
-5.44593e-07
8.2731e-06
-1.77779e-07
8.30392e-06
-7.60655e-08
8.31447e-06
-3.38212e-07
8.27472e-06
-7.10192e-07
8.24958e-06
-6.23796e-07
8.2413e-06
-3.85858e-07
8.23363e-06
-2.96029e-07
8.2409e-06
-1.88635e-07
8.25062e-06
-5.10262e-08
8.25183e-06
-7.46896e-09
8.25376e-06
-1.11646e-08
8.26083e-06
1.75721e-08
8.26354e-06
6.78613e-08
8.261e-06
8.42071e-08
8.26024e-06
8.30351e-08
8.26454e-06
8.72516e-08
8.27038e-06
1.04007e-07
1.13221e-07
8.27403e-06
8.67982e-06
-1.94272e-07
8.66874e-06
-5.33512e-07
8.67236e-06
-1.81402e-07
8.69703e-06
-1.00732e-07
8.70857e-06
-3.49758e-07
8.67184e-06
-6.73455e-07
8.64535e-06
-5.9731e-07
8.63789e-06
-3.78395e-07
8.6304e-06
-2.88542e-07
8.63563e-06
-1.93871e-07
8.64496e-06
-6.03533e-08
8.6464e-06
-8.90286e-09
8.64703e-06
-1.18024e-08
8.65377e-06
1.08348e-08
8.65832e-06
6.33083e-08
8.65694e-06
8.55926e-08
8.6556e-06
8.43688e-08
8.65908e-06
8.37752e-08
8.6655e-06
9.7587e-08
1.08719e-07
8.67e-06
9.0971e-06
-1.73752e-07
9.08467e-06
-5.21084e-07
9.09078e-06
-1.87513e-07
9.10971e-06
-1.19657e-07
9.12059e-06
-3.6064e-07
9.08796e-06
-6.40824e-07
9.06034e-06
-5.69695e-07
9.05277e-06
-3.70826e-07
9.04566e-06
-2.81432e-07
9.04896e-06
-1.97163e-07
9.05749e-06
-6.88838e-08
9.05927e-06
-1.06841e-08
9.05886e-06
-1.13929e-08
9.06488e-06
4.81577e-09
9.07105e-06
5.71393e-08
9.07131e-06
8.53279e-08
9.07004e-06
8.56394e-08
9.07242e-06
8.13907e-08
9.07884e-06
9.11758e-08
1.03144e-07
9.08441e-06
9.53452e-06
-1.54814e-07
9.52033e-06
-5.06891e-07
9.5291e-06
-1.96288e-07
9.5433e-06
-1.33857e-07
9.55154e-06
-3.68875e-07
9.5236e-06
-6.1288e-07
9.49547e-06
-5.41564e-07
9.48678e-06
-3.62144e-07
9.47991e-06
-2.74563e-07
9.48161e-06
-1.98861e-07
9.48919e-06
-7.64648e-08
9.49161e-06
-1.31023e-08
9.49042e-06
-1.02029e-08
9.4953e-06
-6.58336e-11
9.50265e-06
4.9796e-08
9.50491e-06
8.30627e-08
9.50426e-06
8.62944e-08
9.50573e-06
7.99194e-08
9.51146e-06
8.5445e-08
9.66496e-08
9.51795e-06
9.99303e-06
-1.37706e-07
9.97676e-06
-4.9063e-07
9.9881e-06
-2.07625e-07
9.99879e-06
-1.44541e-07
1.00026e-05
-3.72722e-07
9.9792e-06
-5.89445e-07
9.95147e-06
-5.13833e-07
9.94114e-06
-3.51817e-07
9.93423e-06
-2.67657e-07
9.93465e-06
-1.99275e-07
9.94148e-06
-8.33024e-08
9.9447e-06
-1.6315e-08
9.94314e-06
-8.65092e-09
9.94643e-06
-3.3473e-09
9.95438e-06
4.1842e-08
9.95867e-06
7.87736e-08
9.959e-06
8.59658e-08
9.96008e-06
7.88405e-08
9.96469e-06
8.0833e-08
8.98175e-08
9.97152e-06
1.04736e-05
-1.22631e-07
1.04551e-05
-4.72138e-07
1.04686e-05
-2.21187e-07
1.0477e-05
-1.52921e-07
1.04754e-05
-3.71152e-07
1.04554e-05
-5.69395e-07
1.04295e-05
-4.87902e-07
1.04174e-05
-3.39718e-07
1.041e-05
-2.60272e-07
1.04094e-05
-1.98669e-07
1.04156e-05
-8.95469e-08
1.04196e-05
-2.0272e-08
1.04181e-05
-7.19985e-09
1.04198e-05
-4.98622e-09
1.04276e-05
3.39766e-08
1.04336e-05
7.27638e-08
1.04352e-05
8.445e-08
1.04363e-05
7.7702e-08
1.04399e-05
7.72354e-08
8.34027e-08
1.04463e-05
1.09771e-05
-1.0973e-07
1.09564e-05
-4.51418e-07
1.09715e-05
-2.36257e-07
1.09789e-05
-1.60361e-07
1.09721e-05
-3.64324e-07
1.09537e-05
-5.50997e-07
1.09307e-05
-4.64942e-07
1.09172e-05
-3.26152e-07
1.09085e-05
-2.51615e-07
1.0907e-05
-1.97187e-07
1.09127e-05
-9.52756e-08
1.09174e-05
-2.4967e-08
1.09165e-05
-6.21336e-09
1.09167e-05
-5.27269e-09
1.09237e-05
2.69693e-08
1.0931e-05
6.55171e-08
1.09338e-05
8.16413e-08
1.09352e-05
7.62834e-08
1.09383e-05
7.41847e-08
7.78898e-08
1.09438e-05
1.15047e-05
-9.90553e-08
1.14819e-05
-4.2862e-07
1.14974e-05
-2.51715e-07
1.15054e-05
-1.68402e-07
1.1494e-05
-3.52942e-07
1.14753e-05
-5.32245e-07
1.14561e-05
-4.45741e-07
1.1442e-05
-3.1209e-07
1.14315e-05
-2.4109e-07
1.14288e-05
-1.94487e-07
1.1434e-05
-1.00465e-07
1.14394e-05
-3.03695e-08
1.14391e-05
-5.96115e-09
1.14385e-05
-4.64187e-09
1.14441e-05
2.13163e-08
1.1452e-05
5.7695e-08
1.14561e-05
7.75188e-08
1.14579e-05
7.44832e-08
1.14608e-05
7.12857e-08
7.32362e-08
1.14654e-05
1.20573e-05
-9.05575e-08
1.20328e-05
-4.04087e-07
1.20475e-05
-2.66447e-07
1.20574e-05
-1.78237e-07
1.20424e-05
-3.38016e-07
1.20217e-05
-5.11499e-07
1.20062e-05
-4.30251e-07
1.19931e-05
-2.98975e-07
1.19807e-05
-2.28715e-07
1.1976e-05
-1.89781e-07
1.19804e-05
-1.0486e-07
1.19863e-05
-3.631e-08
1.19871e-05
-6.71902e-09
1.1986e-05
-3.59829e-09
1.19902e-05
1.71557e-08
1.19979e-05
4.99901e-08
1.20032e-05
7.22483e-08
1.20055e-05
7.21615e-08
1.20083e-05
6.84575e-08
6.90637e-08
1.20125e-05
1.26361e-05
-8.40654e-08
1.26104e-05
-3.78428e-07
1.26234e-05
-2.79366e-07
1.26356e-05
-1.9052e-07
1.26185e-05
-3.20905e-07
1.25949e-05
-4.87838e-07
1.25817e-05
-4.17082e-07
1.25711e-05
-2.88365e-07
1.25576e-05
-2.15197e-07
1.25504e-05
-1.82579e-07
1.25533e-05
-1.07779e-07
1.25595e-05
-4.25489e-08
1.25613e-05
-8.53841e-09
1.25604e-05
-2.67439e-09
1.25633e-05
1.42917e-08
1.25703e-05
4.29391e-08
1.25764e-05
6.62169e-08
1.25794e-05
6.91211e-08
1.25822e-05
6.57184e-08
6.51138e-08
1.25861e-05
1.32422e-05
-7.92888e-08
1.32163e-05
-3.52527e-07
1.32263e-05
-2.89399e-07
1.32412e-05
-2.05456e-07
1.32233e-05
-3.02958e-07
1.31965e-05
-4.61046e-07
1.31835e-05
-4.0413e-07
1.31764e-05
-2.81221e-07
1.31631e-05
-2.01868e-07
1.31534e-05
-1.72951e-07
1.31541e-05
-1.08487e-07
1.31602e-05
-4.86144e-08
1.31631e-05
-1.14727e-08
1.31626e-05
-2.17815e-09
1.31646e-05
1.23711e-08
1.31707e-05
3.68194e-08
1.3177e-05
5.98947e-08
1.31808e-05
6.53163e-08
1.31836e-05
6.29396e-08
6.141e-08
1.31873e-05
1.38767e-05
-7.58483e-08
1.38517e-05
-3.27513e-07
1.38579e-05
-2.95601e-07
1.38748e-05
-2.22351e-07
1.38576e-05
-2.85724e-07
1.3828e-05
-4.31468e-07
1.38133e-05
-3.89445e-07
1.38094e-05
-2.77305e-07
1.37979e-05
-1.90366e-07
1.37865e-05
-1.61585e-07
1.37846e-05
-1.06573e-07
1.37898e-05
-5.38297e-08
1.37936e-05
-1.52713e-08
1.37939e-05
-2.49278e-09
1.37952e-05
1.1137e-08
1.38004e-05
3.16078e-08
1.38066e-05
5.36758e-08
1.3811e-05
6.09552e-08
1.3814e-05
5.99239e-08
5.79587e-08
1.38174e-05
1.45411e-05
-7.33105e-08
1.45177e-05
-3.04095e-07
1.45197e-05
-2.97582e-07
1.45372e-05
-2.39831e-07
1.45221e-05
-2.70661e-07
1.44906e-05
-3.99986e-07
1.4473e-05
-3.71769e-07
1.44709e-05
-2.75239e-07
1.44627e-05
-1.82181e-07
1.44508e-05
-1.49699e-07
1.44464e-05
-1.02125e-07
1.445e-05
-5.74476e-08
1.44542e-05
-1.94683e-08
1.44555e-05
-3.80696e-09
1.44564e-05
1.01953e-08
1.44608e-05
2.72807e-08
1.44667e-05
4.77537e-08
1.44713e-05
5.63274e-08
1.44746e-05
5.66147e-08
5.46262e-08
1.4478e-05
1.52368e-05
-7.12368e-08
1.52158e-05
-2.83134e-07
1.52133e-05
-2.95082e-07
1.52293e-05
-2.55814e-07
1.52172e-05
-2.58545e-07
1.51854e-05
-3.68137e-07
1.51645e-05
-3.50871e-07
1.51623e-05
-2.73066e-07
1.51581e-05
-1.77971e-07
1.51473e-05
-1.38945e-07
1.51409e-05
-9.56463e-08
1.51424e-05
-5.89715e-08
1.51463e-05
-2.34436e-08
1.51486e-05
-6.07591e-09
1.51497e-05
9.10404e-09
1.51532e-05
2.37604e-08
1.51587e-05
4.22787e-08
1.51634e-05
5.15903e-08
1.51669e-05
5.31386e-08
5.12628e-08
1.51703e-05
1.59652e-05
-6.91547e-08
1.59477e-05
-2.65619e-07
1.59397e-05
-2.87017e-07
1.59523e-05
-2.68457e-07
1.59437e-05
-2.49975e-07
1.59134e-05
-3.37809e-07
1.589e-05
-3.27484e-07
1.58858e-05
-2.6887e-07
1.5885e-05
-1.77112e-07
1.5877e-05
-1.3102e-07
1.58694e-05
-8.803e-08
1.58687e-05
-5.82749e-08
1.58719e-05
-2.65936e-08
1.58746e-05
-8.8339e-09
1.58763e-05
7.47647e-09
1.58792e-05
2.08036e-08
1.58842e-05
3.73431e-08
1.58889e-05
4.68102e-08
1.58925e-05
4.95815e-08
4.78788e-08
1.58959e-05
1.6728e-05
-6.65933e-08
1.67093e-05
-2.46831e-07
1.66977e-05
-2.75479e-07
1.67079e-05
-2.78691e-07
1.67038e-05
-2.45843e-07
1.66767e-05
-3.10713e-07
1.66519e-05
-3.02613e-07
1.66443e-05
-2.61333e-07
1.66449e-05
-1.77683e-07
1.66406e-05
-1.26761e-07
1.66334e-05
-8.07696e-08
1.66307e-05
-5.56366e-08
1.66325e-05
-2.83645e-08
1.66354e-05
-1.17232e-08
1.66375e-05
5.41147e-09
1.66403e-05
1.79792e-08
1.66446e-05
3.30066e-08
1.66493e-05
4.20769e-08
1.6653e-05
4.59197e-08
4.45789e-08
1.66563e-05
1.75273e-05
-6.34997e-08
1.75127e-05
-2.32262e-07
1.7497e-05
-2.59739e-07
1.75006e-05
-2.8237e-07
1.74994e-05
-2.44574e-07
1.74767e-05
-2.88062e-07
1.74516e-05
-2.77537e-07
1.74407e-05
-2.50401e-07
1.74402e-05
-1.77171e-07
1.74392e-05
-1.25742e-07
1.74338e-05
-7.53743e-08
1.74298e-05
-5.16399e-08
1.743e-05
-2.86093e-08
1.74326e-05
-1.42803e-08
1.74349e-05
3.09735e-09
1.74378e-05
1.50615e-08
1.74417e-05
2.91137e-08
1.74462e-05
3.75621e-08
1.745e-05
4.217e-08
4.13499e-08
1.74532e-05
1.83647e-05
-5.98182e-08
1.83514e-05
-2.18962e-07
1.83349e-05
-2.43294e-07
1.83333e-05
-2.80709e-07
1.83327e-05
-2.43983e-07
1.83146e-05
-2.69951e-07
1.82906e-05
-2.53531e-07
1.8277e-05
-2.36801e-07
1.82739e-05
-1.74081e-07
1.82744e-05
-1.26246e-07
1.82716e-05
-7.26085e-08
1.82675e-05
-4.7561e-08
1.82663e-05
-2.73471e-08
1.8268e-05
-1.60216e-08
1.82705e-05
5.97858e-10
1.82734e-05