/*--------------------------------*- C++ -*----------------------------------*\
| =========                 |                                                 |
| \\      /  F ield         | OpenFOAM: The Open Source CFD Toolbox           |
|  \\    /   O peration     | Version:  2506                                  |
|   \\  /    A nd           | Website:  www.openfoam.com                      |
|    \\/     M anipulation  |                                                 |
\*---------------------------------------------------------------------------*/
FoamFile
{
    version     2.0;
    format      ascii;
    arch        "LSB;label=32;scalar=64";
    class       volVectorField;
    location    "6.05";
    object      U;
}
// * * * * * * * * * * * * * * * * * * * * * * * * * * * * * * * * * * * * * //

dimensions      [0 1 -1 0 0 0 0];

internalField   nonuniform List<vector> 
9600
(
(0.581437 -0.0108354 0)
(1.40073 0.000873862 0)
(0.807661 0.00655467 0)
(1.25367 0.0188384 0)
(0.613327 -0.0213324 0)
(1.27476 -0.0320617 0)
(0.847299 -0.0203292 0)
(1.27914 0.00244798 0)
(0.853698 0.00303004 0)
(1.21857 0.00688518 0)
(0.842988 -0.00410603 0)
(1.19339 -0.000329952 0)
(0.814266 -0.00532545 0)
(1.22119 -0.00601178 0)
(0.826268 -0.00382841 0)
(1.19686 0.00238779 0)
(0.832525 0.00023925 0)
(1.16419 0.00979964 0)
(0.853381 0.00842923 0)
(1.1462 0.0145007 0)
(0.605627 -0.0109314 0)
(1.38587 -0.000445236 0)
(0.829794 0.00706272 0)
(1.24131 0.020661 0)
(0.706794 -0.0220255 0)
(1.231 -0.0343651 0)
(0.861473 -0.0210727 0)
(1.26169 0.00264348 0)
(0.882334 0.0034142 0)
(1.20082 0.00731584 0)
(0.889359 -0.00405874 0)
(1.17357 0.000666407 0)
(0.868561 -0.0062375 0)
(1.19104 -0.00595162 0)
(0.886142 -0.00354743 0)
(1.14991 0.00235276 0)
(0.909616 0.00136491 0)
(1.08828 0.00856488 0)
(0.959545 0.0102311 0)
(1.02836 0.0122584 0)
(0.646762 -0.0111007 0)
(1.34923 -0.00168723 0)
(0.874162 0.00792769 0)
(1.22402 0.0220399 0)
(0.800749 -0.0219848 0)
(1.17117 -0.0350405 0)
(0.889624 -0.0216579 0)
(1.2248 0.00273228 0)
(0.932874 0.00391693 0)
(1.17039 0.00744808 0)
(0.955933 -0.00384964 0)
(1.13924 0.00108572 0)
(0.942619 -0.00668915 0)
(1.14234 -0.00611247 0)
(0.965843 -0.00279553 0)
(1.09399 0.00203735 0)
(0.985341 0.00278188 0)
(1.03433 0.00758062 0)
(1.00539 0.0111993 0)
(1.0077 0.0119556 0)
(0.702112 -0.011236 0)
(1.29026 -0.00297217 0)
(0.930433 0.00853889 0)
(1.20474 0.0228457 0)
(0.892314 -0.0214798 0)
(1.10388 -0.0356499 0)
(0.923101 -0.0225239 0)
(1.17519 0.00235317 0)
(0.989564 0.00433546 0)
(1.13867 0.00719746 0)
(1.01698 -0.00345931 0)
(1.10526 0.00134467 0)
(1.0018 -0.00662079 0)
(1.09781 -0.00654709 0)
(1.02032 -0.00190706 0)
(1.06255 0.00186885 0)
(1.02351 0.00389062 0)
(1.02275 0.00762546 0)
(1.01562 0.011481 0)
(1.01347 0.0124864 0)
(0.76604 -0.0112559 0)
(1.21562 -0.00444952 0)
(0.985399 0.00875823 0)
(1.18604 0.0233316 0)
(0.966591 -0.0202555 0)
(1.04258 -0.0357004 0)
(0.950489 -0.0234592 0)
(1.12511 0.00154629 0)
(1.03698 0.0045384 0)
(1.11717 0.00683547 0)
(1.05839 -0.00292419 0)
(1.08374 0.00164025 0)
(1.03397 -0.00631533 0)
(1.06925 -0.00695886 0)
(1.04261 -0.00130816 0)
(1.05279 0.00192631 0)
(1.03806 0.00473417 0)
(1.02742 0.00814806 0)
(1.02136 0.0116834 0)
(1.0185 0.0130568 0)
(0.830435 -0.0111351 0)
(1.13738 -0.00599719 0)
(1.02855 0.00855388 0)
(1.16927 0.0236473 0)
(1.01881 -0.0185632 0)
(0.999235 -0.0354022 0)
(0.965102 -0.024477 0)
(1.08506 0.00039269 0)
(1.06795 0.0043939 0)
(1.10859 0.00653698 0)
(1.0808 -0.00229726 0)
(1.07484 0.00209298 0)
(1.04629 -0.00582926 0)
(1.05317 -0.00718974 0)
(1.04508 -0.00102746 0)
(1.0496 0.00202241 0)
(1.04336 0.0053946 0)
(1.03332 0.00868936 0)
(1.02742 0.0119674 0)
(1.02334 0.0136344 0)
(0.887383 -0.0108694 0)
(1.06902 -0.0074704 0)
(1.05396 0.00788406 0)
(1.15402 0.0238286 0)
(1.05049 -0.0165775 0)
(0.977737 -0.0347231 0)
(0.968255 -0.0255149 0)
(1.05797 -0.00106951 0)
(1.08327 0.00385009 0)
(1.10746 0.00631618 0)
(1.09064 -0.00158307 0)
(1.07237 0.00271707 0)
(1.04896 -0.00510977 0)
(1.04265 -0.00722189 0)
(1.03876 -0.000960561 0)
(1.04464 0.00197695 0)
(1.04371 0.00576203 0)
(1.03689 0.00915939 0)
(1.03249 0.0122826 0)
(1.02841 0.0141807 0)
(0.931953 -0.0104937 0)
(1.01987 -0.0087585 0)
(1.06053 0.00679914 0)
(1.13817 0.0238963 0)
(1.06624 -0.0145335 0)
(0.973624 -0.0337681 0)
(0.966122 -0.0264953 0)
(1.04054 -0.00277387 0)
(1.08672 0.00295872 0)
(1.10666 0.00611992 0)
(1.09281 -0.000791664 0)
(1.07091 0.00347676 0)
(1.04789 -0.00415581 0)
(1.03386 -0.0070558 0)
(1.02934 -0.000974806 0)
(1.03631 0.00173959 0)
(1.03963 0.00581336 0)
(1.03703 0.00952752 0)
(1.03542 0.0124888 0)
(1.03269 0.014622 0)
(0.963164 -0.0100738 0)
(0.991646 -0.00977225 0)
(1.05144 0.00547138 0)
(1.11958 0.023827 0)
(1.07086 -0.0126006 0)
(0.978969 -0.0326356 0)
(0.964299 -0.027314 0)
(1.02812 -0.00459776 0)
(1.08152 0.00182923 0)
(1.10157 0.00589488 0)
(1.08926 3.32884e-05 0)
(1.06766 0.00430159 0)
(1.04522 -0.00301504 0)
(1.0259 -0.00667935 0)
(1.01942 -0.000974106 0)
(1.02583 0.0013922 0)
(1.03185 0.00560331 0)
(1.03334 0.00969123 0)
(1.03529 0.0124647 0)
(1.03495 0.0149028 0)
(0.982966 -0.00967192 0)
(0.979646 -0.0104604 0)
(1.03299 0.0041076 0)
(1.09777 0.0235826 0)
(1.06825 -0.0109072 0)
(0.987352 -0.0314418 0)
(0.965047 -0.027888 0)
(1.01764 -0.00638783 0)
(1.06987 0.000594616 0)
(1.09043 0.00560532 0)
(1.08058 0.000830204 0)
(1.06158 0.00510419 0)
(1.04138 -0.0017594 0)
(1.01894 -0.00610725 0)
(1.01035 -0.000903752 0)
(1.01501 0.00105167 0)
(1.0219 0.00518145 0)
(1.02646 0.00958998 0)
(1.03178 0.0121823 0)
(1.03426 0.0149724 0)
(0.994479 -0.00932357 0)
(0.977038 -0.0108267 0)
(1.01248 0.00286786 0)
(1.07448 0.0231404 0)
(1.06149 -0.009529 0)
(0.995317 -0.0302846 0)
(0.967983 -0.0281728 0)
(1.00788 -0.00798766 0)
(1.05389 -0.000616071 0)
(1.07385 0.00523679 0)
(1.06748 0.00152614 0)
(1.05264 0.00579686 0)
(1.03634 -0.000489339 0)
(1.01323 -0.00538505 0)
(1.00294 -0.000737775 0)
(1.00542 0.000806527 0)
(1.01157 0.00462146 0)
(1.01773 0.00926528 0)
(1.02542 0.0116859 0)
(1.03035 0.0147754 0)
(1.00066 -0.00903428 0)
(0.978384 -0.0109297 0)
(0.995579 0.0018296 0)
(1.05266 0.0225183 0)
(1.05308 -0.00848675 0)
(1.0015 -0.0292327 0)
(0.971878 -0.0281821 0)
(0.998993 -0.00928908 0)
(1.03629 -0.00170603 0)
(1.05421 0.00479664 0)
(1.05159 0.00206074 0)
(1.04161 0.00630509 0)
(1.03017 0.00068721 0)
(1.00878 -0.0045857 0)
(0.997584 -0.000482569 0)
(0.998104 0.000707985 0)
(1.0025 0.00403505 0)
(1.00867 0.00881372 0)
(1.01736 0.0110566 0)
(1.02372 0.0143084 0)
(1.00371 -0.00879188 0)
(0.980736 -0.0108539 0)
(0.984737 0.00100381 0)
(1.03478 0.0217681 0)
(1.04485 -0.00774306 0)
(1.00558 -0.0283252 0)
(0.975724 -0.0279593 0)
(0.991771 -0.0102461 0)
(1.01999 -0.00261119 0)
(1.03471 0.00431264 0)
(1.03519 0.00242104 0)
(1.02978 0.00659343 0)
(1.02323 0.00167962 0)
(1.00534 -0.00379417 0)
(0.994197 -0.000178797 0)
(0.993417 0.000765347 0)
(0.995821 0.00352775 0)
(1.00071 0.00833951 0)
(1.00908 0.010403 0)
(1.01561 0.0136536 0)
(1.00506 -0.00858028 0)
(0.983015 -0.0106762 0)
(0.979456 0.000359488 0)
(1.02173 0.0209623 0)
(1.03787 -0.00722708 0)
(1.00781 -0.027555 0)
(0.978958 -0.0275637 0)
(0.986778 -0.0108989 0)
(1.0071 -0.00330979 0)
(1.01802 0.00382403 0)
(1.02043 0.00262912 0)
(1.01858 0.00667326 0)
(1.01614 0.00244348 0)
(1.00251 -0.0030801 0)
(0.992316 0.000123408 0)
(0.991029 0.000948636 0)
(0.991959 0.00315998 0)
(0.994892 0.00792761 0)
(1.00204 0.00983449 0)
(1.00773 0.0129354 0)
(1.00556 -0.00838914 0)
(0.985013 -0.0104474 0)
(0.977831 -0.00013943 0)
(1.01288 0.0201555 0)
(1.03242 -0.00686512 0)
(1.00868 -0.0268964 0)
(0.98138 -0.0270531 0)
(0.983881 -0.0113139 0)
(0.998194 -0.00381582 0)
(1.00539 0.00336754 0)
(1.00861 0.00273133 0)
(1.00909 0.00659179 0)
(1.00965 0.00297698 0)
(1.00002 -0.00248672 0)
(0.991336 0.000379305 0)
(0.990179 0.00119725 0)
(0.990525 0.00293204 0)
(0.991604 0.00761787 0)
(0.997228 0.00942132 0)
(1.00164 0.0122573 0)
(1.00565 -0.00821116 0)
(0.986733 -0.0102019 0)
(0.978005 -0.000521214 0)
(1.00701 0.0193616 0)
(1.02834 -0.0066019 0)
(1.00874 -0.0263203 0)
(0.983033 -0.0264714 0)
(0.982454 -0.0115566 0)
(0.99265 -0.00416148 0)
(0.996698 0.00296601 0)
(1.00002 0.00277314 0)
(1.00185 0.00640451 0)
(1.00438 0.00331024 0)
(0.997849 -0.00202367 0)
(0.990789 0.000555709 0)
(0.990084 0.00144561 0)
(0.990611 0.00280114 0)
(0.990461 0.00739808 0)
(0.994785 0.00917465 0)
(0.99804 0.0116717 0)
(1.00556 -0.00804087 0)
(0.988166 -0.00996006 0)
(0.9788 -0.000815238 0)
(1.00305 0.0185835 0)
(1.02528 -0.00639657 0)
(1.00843 -0.0257986 0)
(0.984085 -0.0258474 0)
(0.981835 -0.0116868 0)
(0.989408 -0.00438824 0)
(0.991094 0.00262291 0)
(0.994283 0.00278245 0)
(0.996881 0.00615302 0)
(1.00062 0.00349888 0)
(0.996163 -0.00166629 0)
(0.990473 0.000648947 0)
(0.990233 0.0016539 0)
(0.991295 0.00271847 0)
(0.990618 0.00722155 0)
(0.994099 0.00905384 0)
(0.996615 0.0111853 0)
(1.00539 -0.00787554 0)
(0.989294 -0.00972692 0)
(0.979679 -0.00103973 0)
(1.00039 0.0178178 0)
(1.02297 -0.0062261 0)
(1.00801 -0.0253132 0)
(0.984723 -0.0251981 0)
(0.981595 -0.011744 0)
(0.987567 -0.00453682 0)
(0.987667 0.00232876 0)
(0.990723 0.00276731 0)
(0.993843 0.0058673 0)
(0.998301 0.00357964 0)
(0.995106 -0.00137486 0)
(0.990375 0.000683017 0)
(0.990436 0.00181478 0)
(0.991999 0.00265649 0)
(0.991249 0.00703977 0)
(0.994281 0.00899412 0)
(0.996465 0.0107832 0)
(1.00518 -0.0077115 0)
(0.990145 -0.00950361 0)
(0.98046 -0.00120964 0)
(0.998709 0.0170542 0)
(1.02121 -0.00607786 0)
(1.00761 -0.0248487 0)
(0.985109 -0.0245305 0)
(0.981543 -0.0117513 0)
(0.986555 -0.00463871 0)
(0.985709 0.00206679 0)
(0.988699 0.002728 0)
(0.992255 0.00556028 0)
(0.997105 0.00358256 0)
(0.994664 -0.00112332 0)
(0.990512 0.000684532 0)
(0.990679 0.00193643 0)
(0.992531 0.0026119 0)
(0.991857 0.00683203 0)
(0.994633 0.00894081 0)
(0.996721 0.0104452 0)
(1.00492 -0.0075453 0)
(0.990797 -0.00928948 0)
(0.981108 -0.00133913 0)
(0.997782 0.0162846 0)
(1.01983 -0.00594225 0)
(1.00729 -0.0243925 0)
(0.985361 -0.0238483 0)
(0.981618 -0.0117249 0)
(0.986049 -0.00471817 0)
(0.984727 0.00182393 0)
(0.987683 0.00266125 0)
(0.991631 0.00523429 0)
(0.996629 0.00353711 0)
(0.994677 -0.000895424 0)
(0.990849 0.000677509 0)
(0.990985 0.00203362 0)
(0.992915 0.00259246 0)
(0.992294 0.00660666 0)
(0.99483 0.00886873 0)
(0.996889 0.0101523 0)
(1.0046 -0.00737504 0)
(0.991344 -0.00908328 0)
(0.981631 -0.00144053 0)
(0.997405 0.0155035 0)
(1.01872 -0.00581022 0)
(1.00705 -0.0239361 0)
(0.985559 -0.0231549 0)
(0.981799 -0.0116734 0)
(0.985862 -0.00479443 0)
(0.984372 0.00159289 0)
(0.987285 0.00256316 0)
(0.991573 0.00489925 0)
(0.996532 0.00345021 0)
(0.994939 -0.000679575 0)
(0.991301 0.000679965 0)
(0.991344 0.0021219 0)
(0.993223 0.00260374 0)
(0.992602 0.00637997 0)
(0.994837 0.00877553 0)
(0.996849 0.00989157 0)
(1.00421 -0.00719832 0)
(0.991863 -0.00888809 0)
(0.982058 -0.00152516 0)
(0.997378 0.0147076 0)
(1.01776 -0.00567724 0)
(1.00687 -0.0234739 0)
(0.985761 -0.0224537 0)
(0.982072 -0.0116001 0)
(0.985878 -0.00487899 0)
(0.984395 0.00136702 0)
(0.987237 0.00243821 0)
(0.991807 0.00456062 0)
(0.996593 0.00333366 0)
(0.995285 -0.000476931 0)
(0.991778 0.000690233 0)
(0.99172 0.00220448 0)
(0.993497 0.00264621 0)
(0.992865 0.00616389 0)
(0.994743 0.00866457 0)
(0.99667 0.00965633 0)
(1.00377 -0.0070142 0)
(0.992383 -0.00870417 0)
(0.982431 -0.00159676 0)
(0.997532 0.013897 0)
(1.0169 -0.0055427 0)
(1.0067 -0.0230019 0)
(0.986 -0.0217468 0)
(0.982426 -0.0115077 0)
(0.986028 -0.00497713 0)
(0.984625 0.00114177 0)
(0.98737 0.00229275 0)
(0.992157 0.00421826 0)
(0.996693 0.00320026 0)
(0.995612 -0.000284806 0)
(0.992219 0.000714094 0)
(0.992073 0.0022815 0)
(0.993745 0.0027176 0)
(0.99313 0.00597001 0)
(0.994641 0.00854397 0)
(0.996458 0.00944096 0)
(1.00331 -0.00682325 0)
(0.992895 -0.00852809 0)
(0.982801 -0.00165533 0)
(0.997745 0.0130725 0)
(1.0161 -0.00540562 0)
(1.00651 -0.0225175 0)
(0.986291 -0.0210391 0)
(0.982853 -0.011395 0)
(0.986275 -0.00508808 0)
(0.984953 0.000914331 0)
(0.987585 0.00213002 0)
(0.992517 0.00387642 0)
(0.996778 0.00305494 0)
(0.995875 -0.000104562 0)
(0.992601 0.000759227 0)
(0.992384 0.00235538 0)
(0.993971 0.00280682 0)
(0.993416 0.00580046 0)
(0.994586 0.00843196 0)
(0.99628 0.00925498 0)
(1.00286 -0.00662435 0)
(0.993368 -0.00836115 0)
(0.983209 -0.00170498 0)
(0.997942 0.0122352 0)
(1.01533 -0.00526713 0)
(1.00627 -0.0220195 0)
(0.986627 -0.0203361 0)
(0.983342 -0.0112617 0)
(0.986596 -0.00521012 0)
(0.985313 0.000681714 0)
(0.987829 0.00195259 0)
(0.992831 0.00353994 0)
(0.99683 0.00290405 0)
(0.996057 6.10599e-05 0)
(0.992923 0.000822188 0)
(0.992649 0.00243142 0)
(0.994182 0.00290661 0)
(0.993729 0.00563852 0)
(0.994609 0.00832583 0)
(0.996162 0.00912954 0)
(1.00247 -0.00641768 0)
(0.993767 -0.00820363 0)
(0.983678 -0.00174812 0)
(0.998084 0.0113915 0)
(1.01459 -0.00512976 0)
(1.00598 -0.0215086 0)
(0.98699 -0.0196401 0)
(0.983876 -0.0111106 0)
(0.986971 -0.00533986 0)
(0.985671 0.000445666 0)
(0.988076 0.00176502 0)
(0.993075 0.0032073 0)
(0.996848 0.00275142 0)
(0.996162 0.000212279 0)
(0.993197 0.000892283 0)
(0.992877 0.0025105 0)
(0.994389 0.00302085 0)
(0.994068 0.00547417 0)
(0.994723 0.0081865 0)
(0.996108 0.00906864 0)
(1.00216 -0.00620246 0)
(0.994077 -0.00805628 0)
(0.984202 -0.0017846 0)
(0.99816 0.0105458 0)
(1.01388 -0.0049944 0)
(1.00567 -0.0209822 0)
(0.987359 -0.0189569 0)
(0.984439 -0.0109415 0)
(0.987378 -0.00547491 0)
(0.986013 0.000212078 0)
(0.988313 0.00157232 0)
(0.993252 0.00287999 0)
(0.996843 0.00260172 0)
(0.996203 0.000350165 0)
(0.993441 0.00095898 0)
(0.993082 0.00258489 0)
(0.994599 0.0031515 0)
(0.994425 0.00532253 0)
(0.99493 0.00798683 0)
(0.996115 0.00902113 0)
(1.00195 -0.0059792 0)
(0.994305 -0.00791619 0)
(0.984758 -0.00181707 0)
(0.998178 0.0097001 0)
(1.01317 -0.00486521 0)
(1.00536 -0.0204369 0)
(0.987721 -0.0182902 0)
(0.985011 -0.0107566 0)
(0.987798 -0.00561399 0)
(0.986337 -2.04489e-05 0)
(0.988534 0.00137889 0)
(0.993374 0.00255611 0)
(0.996826 0.00245795 0)
(0.996198 0.000481881 0)
(0.993666 0.00101922 0)
(0.993273 0.00264379 0)
(0.994814 0.00328731 0)
(0.994786 0.00520639 0)
(0.995209 0.00774678 0)
(0.996181 0.00892704 0)
(1.00182 -0.00574864 0)
(0.99448 -0.00778124 0)
(0.985319 -0.00184901 0)
(0.998158 0.0088608 0)
(1.01247 -0.00474713 0)
(1.00506 -0.0198742 0)
(0.988071 -0.0176406 0)
(0.985579 -0.0105559 0)
(0.988218 -0.00575435 0)
(0.986649 -0.000256648 0)
(0.988733 0.00118839 0)
(0.993459 0.00222962 0)
(0.996804 0.00231634 0)
(0.996158 0.000613508 0)
(0.993877 0.00107694 0)
(0.993458 0.00268491 0)
(0.995034 0.00340721 0)
(0.99514 0.00512428 0)
(0.995533 0.00751138 0)
(0.996295 0.00877241 0)
(1.00174 -0.00551176 0)
(0.994637 -0.00764976 0)
(0.985864 -0.00188021 0)
(0.998117 0.00803167 0)
(1.01176 -0.00464159 0)
(1.00478 -0.0192967 0)
(0.988416 -0.0170068 0)
(0.986133 -0.0103397 0)
(0.988633 -0.00589046 0)
(0.986957 -0.000495224 0)
(0.98891 0.00100733 0)
(0.993518 0.00190228 0)
(0.996779 0.00216944 0)
(0.996096 0.000748019 0)
(0.994072 0.00113586 0)
(0.993638 0.0027163 0)
(0.995253 0.0035067 0)
(0.995483 0.00504777 0)
(0.995877 0.00730163 0)
(0.99644 0.00859199 0)
(1.00168 -0.00526911 0)
(0.994807 -0.00751888 0)
(0.986388 -0.00191466 0)
(0.998072 0.00721626 0)
(1.01104 -0.00455043 0)
(1.00452 -0.0187064 0)
(0.988766 -0.0163852 0)
(0.98667 -0.0101086 0)
(0.989044 -0.00602332 0)
(0.98727 -0.000741 0)
(0.989064 0.000839716 0)
(0.993561 0.00157851 0)
(0.996753 0.00200855 0)
(0.996019 0.000886245 0)
(0.994245 0.0011944 0)
(0.993813 0.00273211 0)
(0.995463 0.00359875 0)
(0.99581 0.00495921 0)
(0.996226 0.0070866 0)
(0.996601 0.00841762 0)
(1.00162 -0.00502299 0)
(0.995007 -0.00738592 0)
(0.986895 -0.00194861 0)
(0.998032 0.00641275 0)
(1.0103 -0.00447863 0)
(1.00426 -0.0181089 0)
(0.989129 -0.0157813 0)
(0.987187 -0.00986516 0)
(0.989457 -0.00614953 0)
(0.987597 -0.000993878 0)
(0.989199 0.000691997 0)
(0.993593 0.00126722 0)
(0.996728 0.0018337 0)
(0.995934 0.00103045 0)
(0.994391 0.00125919 0)
(0.993985 0.00271668 0)
(0.995656 0.0036893 0)
(0.996114 0.00488298 0)
(0.996576 0.00683363 0)
(0.996774 0.00823543 0)
(1.00155 -0.00477313 0)
(0.995238 -0.00725317 0)
(0.987397 -0.00198465 0)
(0.998002 0.00563153 0)
(1.00956 -0.00442026 0)
(1.00399 -0.0175062 0)
(0.989507 -0.0151998 0)
(0.987685 -0.00960594 0)
(0.989874 -0.00626449 0)
(0.987943 -0.00126047 0)
(0.989321 0.000559961 0)
(0.99362 0.000971242 0)
(0.996708 0.00164109 0)
(0.995849 0.00117799 0)
(0.994504 0.00134478 0)
(0.994155 0.00266879 0)
(0.995836 0.00375965 0)
(0.996386 0.00485207 0)
(0.996914 0.00656082 0)
(0.996964 0.00800585 0)
(1.00145 -0.00452209 0)
(0.995495 -0.00711451 0)
(0.987903 -0.00202524 0)
(0.997983 0.00486835 0)
(1.00881 -0.00437365 0)
(1.00371 -0.016897 0)
(0.989899 -0.0146397 0)
(0.988162 -0.00933199 0)
(0.990293 -0.00636364 0)
(0.988311 -0.00154334 0)
(0.989437 0.000438863 0)
(0.993642 0.000698215 0)
(0.996699 0.00142476 0)
(0.995775 0.00131334 0)
(0.994583 0.00145756 0)
(0.994319 0.00260954 0)
(0.996013 0.00378398 0)
(0.996623 0.00486134 0)
(0.997225 0.00631828 0)
(0.997172 0.0077142 0)
(1.00134 -0.00427064 0)
(0.995768 -0.00697489 0)
(0.988416 -0.00205978 0)
(0.997974 0.0041177 0)
(1.00807 -0.00433651 0)
(1.00341 -0.0162845 0)
(0.990301 -0.0141051 0)
(0.988619 -0.00905091 0)
(0.99071 -0.00644162 0)
(0.9887 -0.0018338 0)
(0.989554 0.000326575 0)
(0.993658 0.000464809 0)
(0.996705 0.00118723 0)
(0.995721 0.00141936 0)
(0.994632 0.00159052 0)
(0.994472 0.00255935 0)
(0.996191 0.00375759 0)
(0.996838 0.00487306 0)
(0.997494 0.00613702 0)
(0.997385 0.00738709 0)
(1.00122 -0.00401658 0)
(0.996049 -0.00684074 0)
(0.988934 -0.00208701 0)
(0.997971 0.00339275 0)
(1.00734 -0.0043058 0)
(1.0031 -0.0156665 0)
(0.990709 -0.0135953 0)
(0.989058 -0.00876055 0)
(0.991118 -0.00649316 0)
(0.989108 -0.00214016 0)
(0.989677 0.000211846 0)
(0.993668 0.000278126 0)
(0.996728 0.000933586 0)
(0.995692 0.00148513 0)
(0.994657 0.00173506 0)
(0.994606 0.00252069 0)
(0.996371 0.00369277 0)
(0.99704 0.00485539 0)
(0.997719 0.00600578 0)
(0.997588 0.0070674 0)
(1.0011 -0.00376357 0)
(0.996331 -0.00670582 0)
(0.989453 -0.00210732 0)
(0.997973 0.00268482 0)
(1.00663 -0.00429318 0)
(1.00278 -0.0150454 0)
(0.991117 -0.0131133 0)
(0.98948 -0.0084629 0)
(0.991507 -0.00650861 0)
(0.98953 -0.00245379 0)
(0.989811 8.73169e-05 0)
(0.993666 0.000138382 0)
(0.996763 0.000678036 0)
(0.995696 0.00150429 0)
(0.994665 0.00189014 0)
(0.994716 0.00249802 0)
(0.996551 0.00360336 0)
(0.997241 0.00480713 0)
(0.997908 0.0059086 0)
(0.997765 0.00678793 0)
(1.00098 -0.00351117 0)
(0.996612 -0.00657535 0)
(0.989968 -0.00211692 0)
(0.997978 0.00199134 0)
(1.00594 -0.00429607 0)
(1.00246 -0.014416 0)
(0.991523 -0.0126682 0)
(0.989889 -0.00817467 0)
(0.991873 -0.00648621 0)
(0.98996 -0.00276818 0)
(0.989959 -6.06036e-05 0)
(0.993653 3.56762e-05 0)
(0.996807 0.00043511 0)
(0.995736 0.00147011 0)
(0.994663 0.0020495 0)
(0.994794 0.00250234 0)
(0.996726 0.00349476 0)
(0.997446 0.0047266 0)
(0.998069 0.00583684 0)
(0.997904 0.00656754 0)
(1.00085 -0.00325914 0)
(0.996889 -0.00645234 0)
(0.990475 -0.00211386 0)
(0.997984 0.00133003 0)
(1.00528 -0.00432038 0)
(1.00214 -0.0137681 0)
(0.991923 -0.0122519 0)
(0.990287 -0.00790248 0)
(0.992213 -0.00642557 0)
(0.990393 -0.0030737 0)
(0.990127 -0.000230897 0)
(0.993629 -3.46846e-05 0)
(0.996853 0.000217807 0)
(0.995815 0.00138182 0)
(0.994662 0.00219733 0)
(0.994836 0.00254329 0)
(0.996887 0.00337019 0)
(0.997661 0.00459588 0)
(0.998216 0.00576338 0)
(0.997999 0.00640822 0)
(1.00073 -0.00300878 0)
(0.997163 -0.0063372 0)
(0.99097 -0.00210256 0)
(0.997989 0.00070895 0)
(1.00465 -0.00437054 0)
(1.00182 -0.0131076 0)
(0.992315 -0.0118505 0)
(0.990677 -0.0076544 0)
(0.992525 -0.00633172 0)
(0.990824 -0.00335415 0)
(0.990315 -0.000421006 0)
(0.993595 -7.94717e-05 0)
(0.996893 3.89128e-05 0)
(0.99593 0.00124595 0)
(0.994674 0.00231474 0)
(0.994839 0.00262593 0)
(0.997017 0.00325211 0)
(0.997887 0.00441096 0)
(0.998367 0.00564947 0)
(0.998061 0.00629038 0)
(1.00062 -0.00276197 0)
(0.997435 -0.00622694 0)
(0.991455 -0.00209225 0)
(0.997992 0.000132282 0)
(1.00405 -0.004449 0)
(1.00151 -0.0124431 0)
(0.992694 -0.0114563 0)
(0.991062 -0.00743934 0)
(0.99281 -0.00621038 0)
(0.991247 -0.003605 0)
(0.990528 -0.000636555 0)
(0.993556 -0.000115329 0)
(0.996918 -0.000109319 0)
(0.996078 0.00106634 0)
(0.994713 0.00238239 0)
(0.994809 0.00274298 0)
(0.997102 0.00317386 0)
(0.998111 0.00419429 0)
(0.998535 0.00548077 0)
(0.998107 0.00618071 0)
(1.00051 -0.00252027 0)
(0.997704 -0.00612025 0)
(0.991928 -0.00208616 0)
(0.99799 -0.00038563 0)
(1.00349 -0.00456928 0)
(1.0012 -0.011788 0)
(0.993059 -0.0110538 0)
(0.991443 -0.00725184 0)
(0.993071 -0.00606589 0)
(0.991658 -0.00382237 0)
(0.990764 -0.000862055 0)
(0.993517 -0.000146567 0)
(0.996921 -0.000224678 0)
(0.996252 0.000856065 0)
(0.994792 0.00238869 0)
(0.99476 0.00287644 0)
(0.997133 0.00314779 0)
(0.998317 0.0039645 0)
(0.998725 0.00525806 0)
(0.998157 0.00604695 0)
(1.0004 -0.00228345 0)
(0.997969 -0.00601709 0)
(0.992391 -0.00209601 0)
(0.997982 -0.000827401 0)
(1.00297 -0.00472163 0)
(1.00092 -0.0111566 0)
(0.993407 -0.0106357 0)
(0.991821 -0.00709814 0)
(0.993311 -0.00591696 0)
(0.992054 -0.00399795 0)
(0.991027 -0.00109249 0)
(0.993484 -0.000175534 0)
(0.996898 -0.000295976 0)
(0.99644 0.000631096 0)
(0.99492 0.00232945 0)
(0.994708 0.00300483 0)
(0.997103 0.00317066 0)
(0.998488 0.00374015 0)
(0.998936 0.00498415 0)
(0.998227 0.0058765 0)
(1.00031 -0.00205675 0)
(0.99823 -0.00590577 0)
(0.992849 -0.00212725 0)
(0.997969 -0.00117807 0)
(1.00248 -0.00489288 0)
(1.00065 -0.0105715 0)
(0.993734 -0.0101928 0)
(0.992196 -0.00696789 0)
(0.993537 -0.00577488 0)
(0.992433 -0.00412247 0)
(0.991316 -0.00131939 0)
(0.993468 -0.000208673 0)
(0.996845 -0.00032663 0)
(0.996632 0.000406141 0)
(0.9951 0.00219994 0)
(0.99467 0.00310203 0)
(0.997013 0.0032389 0)
(0.998603 0.00355271 0)
(0.999161 0.00466593 0)
(0.99833 0.00566512 0)
(1.00021 -0.00184392 0)
(0.998484 -0.0057781 0)
(0.993302 -0.00218458 0)
(0.997949 -0.00144254 0)
(1.00202 -0.00506095 0)
(1.00041 -0.0100551 0)
(0.994043 -0.00972304 0)
(0.992562 -0.00683096 0)
(0.993755 -0.00563915 0)
(0.992797 -0.00421065 0)
(0.991627 -0.00152556 0)
(0.993476 -0.0002501 0)
(0.996767 -0.000327279 0)
(0.996811 0.000204518 0)
(0.995331 0.00200511 0)
(0.994668 0.0031365 0)
(0.996876 0.00333743 0)
(0.998644 0.00343355 0)
(0.999383 0.00432319 0)
(0.998478 0.00539455 0)
(1.00013 -0.00164385 0)
(0.998731 -0.00563627 0)
(0.993754 -0.00227701 0)
(0.997926 -0.00163709 0)
(1.0016 -0.00519721 0)
(1.00021 -0.00960674 0)
(0.994339 -0.00924878 0)
(0.992917 -0.00667675 0)
(0.993963 -0.00550886 0)
(0.993148 -0.0042696 0)
(0.991958 -0.0017107 0)
(0.993512 -0.00030104 0)
(0.996671 -0.000305131 0)
(0.996968 4.07442e-05 0)
(0.995604 0.00175935 0)
(0.99472 0.00308417 0)
(0.996716 0.00341778 0)
(0.998596 0.00338836 0)
(0.99957 0.00400703 0)
(0.998676 0.00505385 0)
(1.00005 -0.00146154 0)
(0.998967 -0.00547293 0)
(0.994206 -0.00239957 0)
(0.997902 -0.00178233 0)
(1.00119 -0.00528368 0)
(1.00004 -0.00923086 0)
(0.994628 -0.00877621 0)
(0.993261 -0.00649448 0)
(0.994165 -0.00538358 0)
(0.993488 -0.00429911 0)
(0.992309 -0.0018793 0)
(0.99358 -0.000365955 0)
(0.996563 -0.000261002 0)
(0.997094 -7.35018e-05 0)
(0.995903 0.00148699 0)
(0.994833 0.00295027 0)
(0.996565 0.00343552 0)
(0.998475 0.00338303 0)
(0.999687 0.00376779 0)
(0.998904 0.00466552 0)
(0.999975 -0.00129884 0)
(0.999191 -0.00528393 0)
(0.994659 -0.00255362 0)
(0.997884 -0.00189854 0)
(1.0008 -0.00528963 0)
(0.999901 -0.0089194 0)
(0.99492 -0.00832829 0)
(0.993591 -0.00627656 0)
(0.994357 -0.00524593 0)
(0.993818 -0.00430189 0)
(0.992676 -0.00203461 0)
(0.993683 -0.000457499 0)
(0.996455 -0.000215162 0)
(0.997185 -0.000141585 0)
(0.996214 0.00121061 0)
(0.995007 0.00275053 0)
(0.996446 0.00339124 0)
(0.998312 0.0033693 0)
(0.999718 0.00361121 0)
(0.999123 0.00429332 0)
(0.99991 -0.0011578 0)
(0.999397 -0.00506698 0)
(0.99511 -0.00273488 0)
(0.997879 -0.00200055 0)
(1.00043 -0.00520405 0)
(0.999794 -0.00863926 0)
(0.995223 -0.00793253 0)
(0.993914 -0.00602903 0)
(0.994539 -0.0050809 0)
(0.994136 -0.00428621 0)
(0.993054 -0.00217411 0)
(0.993823 -0.00056974 0)
(0.996356 -0.000176118 0)
(0.997238 -0.000167423 0)
(0.99652 0.000953223 0)
(0.995241 0.00249116 0)
(0.996372 0.00329561 0)
(0.998138 0.00331918 0)
(0.99968 0.00349044 0)
(0.999293 0.0039869 0)
(0.999852 -0.00104004 0)
(0.999584 -0.00482429 0)
(0.995557 -0.00292541 0)
(0.997898 -0.00210152 0)
(1.00007 -0.00504591 0)
(0.999705 -0.00836232 0)
(0.995543 -0.00759849 0)
(0.994237 -0.00576269 0)
(0.994706 -0.00487601 0)
(0.994439 -0.00424543 0)
(0.993443 -0.00231121 0)
(0.994005 -0.000703882 0)
(0.996278 -0.000158441 0)
(0.997257 -0.000152903 0)
(0.996804 0.000744473 0)
(0.995526 0.0021929 0)
(0.996356 0.00315174 0)
(0.997968 0.00324795 0)
(0.999598 0.00336972 0)
(0.999401 0.00374976 0)
(0.999801 -0.000944062 0)
(0.99975 -0.00456053 0)
(0.995994 -0.00311289 0)
(0.997944 -0.00222092 0)
(0.999718 -0.0048363 0)
(0.999623 -0.00805681 0)
(0.995878 -0.00733072 0)
(0.994571 -0.00551475 0)
(0.994862 -0.00462985 0)
(0.994715 -0.00415691 0)
(0.993833 -0.00243187 0)
(0.994229 -0.000851033 0)
(0.996236 -0.000165736 0)
(0.997255 -0.000120968 0)
(0.99705 0.000594381 0)
(0.995844 0.00188737 0)
(0.996408 0.00294789 0)
(0.997815 0.00315746 0)
(0.999491 0.00324259 0)
(0.999457 0.00355263 0)
(0.999758 -0.000869983 0)
(0.999892 -0.00427808 0)
(0.996415 -0.00328436 0)
(0.998023 -0.00236997 0)
(0.999392 -0.00459835 0)
(0.999537 -0.00770058 0)
(0.996222 -0.00711277 0)
(0.994926 -0.00531293 0)
(0.995015 -0.00435988 0)
(0.994962 -0.00401818 0)
(0.994215 -0.00251793 0)
(0.994491 -0.00101134 0)
(0.996236 -0.000200922 0)
(0.997244 -8.78463e-05 0)
(0.997255 0.00049994 0)
(0.996169 0.00161461 0)
(0.996526 0.00269584 0)
(0.997698 0.00303358 0)
(0.999371 0.00311553 0)
(0.999481 0.00336461 0)
(0.999721 -0.000816622 0)
(1.00001 -0.00398564 0)
(0.996813 -0.00342257 0)
(0.998135 -0.00255955 0)
(0.999096 -0.00434758 0)
(0.99944 -0.00728883 0)
(0.99656 -0.00690897 0)
(0.99531 -0.00517185 0)
(0.995177 -0.00408311 0)
(0.995177 -0.00382183 0)
(0.994572 -0.00255884 0)
(0.994781 -0.00118173 0)
(0.996286 -0.000270612 0)
(0.997243 -6.41631e-05 0)
(0.997423 0.000443631 0)
(0.996482 0.00139264 0)
(0.996694 0.00243656 0)
(0.99763 0.00287595 0)
(0.999249 0.00299526 0)
(0.999483 0.00318215 0)
(0.999689 -0.000778049 0)
(1.0001 -0.00369779 0)
(0.997178 -0.00351744 0)
(0.998281 -0.00278608 0)
(0.998843 -0.00410147 0)
(0.999328 -0.00682808 0)
(0.996877 -0.00667898 0)
(0.995722 -0.00509606 0)
(0.995365 -0.00384004 0)
(0.995365 -0.00357763 0)
(0.994894 -0.00253733 0)
(0.995084 -0.00133011 0)
(0.996386 -0.000367204 0)
(0.997262 -5.79247e-05 0)
(0.997567 0.000404641 0)
(0.996775 0.0012082 0)
(0.996895 0.00219263 0)
(0.997615 0.00269124 0)
(0.999136 0.00286553 0)
(0.999464 0.00300948 0)
(0.999663 -0.00075102 0)
(1.00017 -0.00342839 0)
(0.997503 -0.00355603 0)
(0.998456 -0.00302264 0)
(0.998642 -0.00388463 0)
(0.999205 -0.00633881 0)
(0.997155 -0.00639969 0)
(0.99615 -0.00506329 0)
(0.995594 -0.00365878 0)
(0.995539 -0.00331427 0)
(0.995172 -0.00245184 0)
(0.995382 -0.0014444 0)
(0.996529 -0.000490394 0)
(0.997311 -8.42918e-05 0)
(0.997691 0.000373213 0)
(0.997048 0.00105285 0)
(0.997116 0.00196674 0)
(0.997644 0.00249518 0)
(0.999044 0.00271568 0)
(0.999425 0.00284546 0)
(0.999642 -0.000729036 0)
(1.00023 -0.00318761 0)
(0.997784 -0.00354696 0)
(0.998652 -0.00325002 0)
(0.998499 -0.00370503 0)
(0.99908 -0.0058382 0)
(0.997381 -0.00605346 0)
(0.996576 -0.00504093 0)
(0.995871 -0.00355673 0)
(0.995718 -0.00306427 0)
(0.995407 -0.0023061 0)
(0.995655 -0.00150348 0)
(0.9967 -0.000612188 0)
(0.997399 -0.000143406 0)
(0.997813 0.000343562 0)
(0.9973 0.000926044 0)
(0.99735 0.00175455 0)
(0.99771 0.00229518 0)
(0.998977 0.00255089 0)
(0.99938 0.00268245 0)
(0.999623 -0.000706531 0)
(1.00027 -0.00297108 0)
(0.998022 -0.00348552 0)
(0.998862 -0.0034503 0)
(0.99842 -0.00358123 0)
(0.998965 -0.00535852 0)
(0.99755 -0.00564793 0)
(0.996975 -0.00498027 0)
(0.996195 -0.00353489 0)
(0.995925 -0.00286738 0)
(0.995609 -0.00212647 0)
(0.995893 -0.00150531 0)
(0.996879 -0.000710606 0)
(0.99752 -0.000227428 0)
(0.997941 0.000296273 0)
(0.997527 0.000820269 0)
(0.997584 0.00155847 0)
(0.997808 0.00209301 0)
(0.998937 0.00237958 0)
(0.999344 0.00251046 0)
(0.999608 -0.00068448 0)
(1.0003 -0.00277882 0)
(0.998215 -0.00335217 0)
(0.99907 -0.00359783 0)
(0.998402 -0.00351084 0)
(0.998876 -0.00492148 0)
(0.997669 -0.00521862 0)
(0.997321 -0.00485178 0)
(0.996543 -0.00355272 0)
(0.996175 -0.00275758 0)
(0.995795 -0.00194685 0)
(0.996089 -0.00145248 0)
(0.997047 -0.000778082 0)
(0.997661 -0.000321143 0)
(0.998086 0.000219887 0)
(0.997741 0.000717535 0)
(0.997811 0.00138574 0)
(0.99793 0.00189647 0)
(0.998918 0.00221303 0)
(0.999319 0.00233302 0)
(0.999593 -0.000658629 0)
(1.00033 -0.00260614 0)
(0.998371 -0.00316599 0)
(0.999261 -0.0036755 0)
(0.998436 -0.0034843 0)
(0.998817 -0.00455427 0)
(0.997746 -0.00479855 0)
(0.997605 -0.00465982 0)
(0.996888 -0.00355555 0)
(0.996469 -0.00272868 0)
(0.995993 -0.00180043 0)
(0.996247 -0.00135451 0)
(0.997187 -0.000804569 0)
(0.997804 -0.000402083 0)
(0.998239 0.000131637 0)
(0.997951 0.000603648 0)
(0.99803 0.00122811 0)
(0.998069 0.00170595 0)
(0.998915 0.00204958 0)
(0.999292 0.00216106 0)
(0.99958 -0.000624995 0)
(1.00035 -0.00245071 0)
(0.998493 -0.00297077 0)
(0.999422 -0.00368309 0)
(0.998505 -0.00348224 0)
(0.998798 -0.00426131 0)
(0.997801 -0.00439051 0)
(0.997828 -0.00441294 0)
(0.997203 -0.00350794 0)
(0.996793 -0.00274204 0)
(0.996221 -0.00171695 0)
(0.996384 -0.00124618 0)
(0.997291 -0.000782368 0)
(0.997935 -0.000467996 0)
(0.998391 4.91704e-05 0)
(0.998156 0.000485471 0)
(0.998244 0.00107468 0)
(0.99822 0.00152165 0)
(0.99893 0.00188353 0)
(0.999256 0.00200449 0)
(0.999568 -0.000583354 0)
(1.00038 -0.00232575 0)
(0.998592 -0.00277522 0)
(0.999554 -0.00361284 0)
(0.9986 -0.00346362 0)
(0.998822 -0.0040304 0)
(0.997845 -0.00401123 0)
(0.997995 -0.004139 0)
(0.997472 -0.00340235 0)