/*--------------------------------*- C++ -*----------------------------------*\
| =========                 |                                                 |
| \\      /  F ield         | OpenFOAM: The Open Source CFD Toolbox           |
|  \\    /   O peration     | Version:  2506                                  |
|   \\  /    A nd           | Website:  www.openfoam.com                      |
|    \\/     M anipulation  |                                                 |
\*---------------------------------------------------------------------------*/
FoamFile
{
    version     2.0;
    format      ascii;
    arch        "LSB;label=32;scalar=64";
    class       volScalarField;
    location    "6.25";
    object      p;
}
// * * * * * * * * * * * * * * * * * * * * * * * * * * * * * * * * * * * * * //

dimensions      [0 2 -2 0 0 0 0];

internalField   nonuniform List<scalar> 
9600
(
2.19449e-10
0.000993834
-0.00754556
-0.00860102
-0.000394415
-0.00284099
-0.00525486
-0.00142556
-0.00522792
-0.0081577
-0.00989446
-0.00895793
-0.00866267
-0.00953263
-0.00974208
-0.00875887
-0.00852546
-0.00758819
-0.00701718
-0.00410537
4.36021e-06
0.000966138
-0.00752205
-0.00859423
-0.000419369
-0.00278514
-0.00523845
-0.00148689
-0.00521603
-0.00818384
-0.00988146
-0.00893636
-0.00867986
-0.00952276
-0.00973305
-0.00875675
-0.00848983
-0.00763029
-0.00697439
-0.00438244
6.70534e-06
0.000930673
-0.00748055
-0.00858401
-0.0004415
-0.00273233
-0.00523229
-0.00155929
-0.00519521
-0.00821633
-0.00984628
-0.00889798
-0.008697
-0.00950025
-0.00972614
-0.0087576
-0.00845947
-0.00768521
-0.00695601
-0.00472665
5.36715e-06
0.000888724
-0.00744289
-0.00855549
-0.000462933
-0.002715
-0.00523863
-0.00163786
-0.00517967
-0.00824468
-0.00979539
-0.00884588
-0.00872227
-0.00948102
-0.00972673
-0.008767
-0.00843608
-0.00774165
-0.00696456
-0.00505512
8.22724e-07
0.000837424
-0.00740958
-0.00850464
-0.000489047
-0.00271741
-0.00524712
-0.00172461
-0.00516928
-0.00826863
-0.00973162
-0.00879187
-0.00876534
-0.0094673
-0.00973158
-0.00878475
-0.00841346
-0.00780099
-0.00699424
-0.00536325
-6.72506e-06
0.000775332
-0.00737556
-0.00843285
-0.000524763
-0.00273303
-0.00525308
-0.00181897
-0.00516048
-0.00828941
-0.00966018
-0.00874527
-0.00882126
-0.00945625
-0.00973678
-0.00880652
-0.00839083
-0.00786323
-0.00704091
-0.00565395
-1.70312e-05
0.000702737
-0.00733831
-0.00834575
-0.000574315
-0.00275601
-0.00525524
-0.00191841
-0.00515203
-0.00830881
-0.00958601
-0.0087055
-0.00888115
-0.00944687
-0.00973964
-0.00882986
-0.00837016
-0.00792702
-0.00710318
-0.0059337
-2.96548e-05
0.00062078
-0.00729761
-0.00825101
-0.000638726
-0.00278156
-0.00525436
-0.00202155
-0.00514377
-0.00832809
-0.00951148
-0.00866884
-0.00894025
-0.00943871
-0.00973914
-0.0088576
-0.00835291
-0.00799027
-0.00718229
-0.00620804
-4.41123e-05
0.000530894
-0.00725403
-0.00815466
-0.000715255
-0.00280726
-0.00525298
-0.00212813
-0.00513508
-0.00834789
-0.00943769
-0.00863284
-0.00899695
-0.00943131
-0.00973617
-0.008886
-0.00833912
-0.00805318
-0.00728053
-0.0064786
-5.99775e-05
0.000434689
-0.00720837
-0.00805977
-0.000800044
-0.00283319
-0.00525375
-0.0022381
-0.00512515
-0.00836859
-0.00936558
-0.00859638
-0.00905047
-0.00942473
-0.00973206
-0.00891581
-0.00833019
-0.00811804
-0.0073965
-0.00674421
-7.70002e-05
0.000333038
-0.0071612
-0.00796727
-0.000889678
-0.00286048
-0.0052583
-0.00235129
-0.00511354
-0.0083901
-0.00929616
-0.00855882
-0.0091003
-0.00941921
-0.00972742
-0.00894595
-0.00832819
-0.00818631
-0.00752557
-0.00700532
-9.50939e-05
0.000226708
-0.00711275
-0.00787708
-0.000981849
-0.00289024
-0.00526699
-0.0024676
-0.00510014
-0.00841205
-0.00923042
-0.00851956
-0.00914623
-0.00941437
-0.00972262
-0.00897682
-0.00833397
-0.00825721
-0.00766416
-0.00726455
-0.000114241
0.000116255
-0.00706308
-0.00778885
-0.00107714
-0.00292293
-0.00527953
-0.00258699
-0.00508515
-0.00843396
-0.00916912
-0.00847808
-0.00918821
-0.00940949
-0.00971814
-0.00900874
-0.0083462
-0.00833203
-0.00781146
-0.00752352
-0.000134469
2.10025e-06
-0.00701216
-0.00770229
-0.00117095
-0.00295838
-0.00529558
-0.00270944
-0.00506894
-0.00845527
-0.00911276
-0.0084339
-0.0092264
-0.00940439
-0.00971443
-0.00903458
-0.00836362
-0.00841437
-0.00796742
-0.00777956
-0.000155842
-0.000115407
-0.00695995
-0.00761731
-0.00126542
-0.00299608
-0.00531495
-0.00283491
-0.00505193
-0.00847544
-0.00906182
-0.00838658
-0.00926134
-0.00939944
-0.0097116
-0.00906814
-0.00838461
-0.00850662
-0.00813218
-0.00802789
-0.000178448
-0.000235927
-0.00690646
-0.00753399
-0.00136064
-0.00303541
-0.00533761
-0.00296325
-0.0050345
-0.00849396
-0.00901682
-0.00833578
-0.00929368
-0.00939513
-0.00970905
-0.0091068
-0.00840704
-0.00860796
-0.00830641
-0.00826562
-0.000202401
-0.00035912
-0.00685177
-0.00745248
-0.0014567
-0.00307558
-0.00536365
-0.00309425
-0.00501706
-0.00851029
-0.0089783
-0.00828135
-0.00932386
-0.00939214
-0.00970574
-0.00915311
-0.00842971
-0.0087161
-0.00849242
-0.00849175
-0.000227834
-0.000484682
-0.006796
-0.0073729
-0.00155381
-0.003116
-0.00539325
-0.00322764
-0.00499997
-0.00852394
-0.00894684
-0.00822332
-0.00935204
-0.00939169
-0.00970042
-0.0092096
-0.00845369
-0.0088274
-0.0086931
-0.00870632
-0.000254907
-0.000612317
-0.00673927
-0.0072954
-0.00165221
-0.00315617
-0.00542659
-0.00336314
-0.00498359
-0.00853445
-0.0089231
-0.00816183
-0.00937796
-0.00939547
-0.00968931
-0.00927773
-0.00848163
-0.00893677
-0.00891039
-0.0089113
-0.000283802
-0.000741725
-0.0066818
-0.00722007
-0.00175216
-0.00319559
-0.00546374
-0.00350048
-0.00496834
-0.00854143
-0.00890753
-0.00809728
-0.00940107
-0.00940517
-0.00967123
-0.00935671
-0.00851732
-0.00903918
-0.00914437
-0.00911123
-0.000314731
-0.000872581
-0.00662385
-0.007147
-0.00185397
-0.00323381
-0.00550473
-0.00363947
-0.00495462
-0.00854453
-0.00890039
-0.00803038
-0.00942037
-0.00942285
-0.00964583
-0.00944566
-0.0085654
-0.00913058
-0.00939264
-0.00931284
-0.000347944
-0.00100453
-0.00656572
-0.00707623
-0.00195796
-0.00327041
-0.00554955
-0.00378005
-0.00494273
-0.00854355
-0.00890191
-0.00796205
-0.00943427
-0.00945066
-0.0096138
-0.00954097
-0.00863052
-0.00920868
-0.00965069
-0.00952417
-0.000383724
-0.00113718
-0.00650776
-0.00700777
-0.00206445
-0.00330508
-0.00559808
-0.0039223
-0.00493294
-0.00853838
-0.00891199
-0.00789337
-0.0094412
-0.00949043
-0.00957657
-0.00963757
-0.0087168
-0.00927313
-0.00991194
-0.00975392
-0.000422395
-0.00127006
-0.00645038
-0.00694152
-0.00217376
-0.0033377
-0.0056501
-0.00406646
-0.00492541
-0.00852916
-0.00893031
-0.00782538
-0.00943993
-0.0095435
-0.00953608
-0.00973057
-0.00882747
-0.00932562
-0.0101674
-0.0100104
-0.000464315
-0.00140268
-0.00639408
-0.0068774
-0.0022862
-0.00336822
-0.0057053
-0.00421282
-0.00492011
-0.00851614
-0.00895689
-0.00775921
-0.00942913
-0.00961045
-0.00949493
-0.00981577
-0.00896472
-0.00937015
-0.0104054
-0.0102991
-0.000509877
-0.00153446
-0.00633942
-0.00681528
-0.00240201
-0.0033967
-0.00576319
-0.00436189
-0.00491682
-0.00849955
-0.00899201
-0.00769595
-0.0094074
-0.0096914
-0.00945649
-0.00988881
-0.00912931
-0.00941386
-0.0106134
-0.0106198
-0.000559515
-0.00166476
-0.00628699
-0.00675503
-0.00252137
-0.00342338
-0.00582304
-0.00451434
-0.00491533
-0.00847938
-0.00903587
-0.00763686
-0.00937343
-0.00978619
-0.00942478
-0.00994475
-0.00931981
-0.00946789
-0.0107802
-0.0109632
-0.000613705
-0.00179287
-0.00623742
-0.0066966
-0.00264432
-0.00344867
-0.00588391
-0.00467092
-0.00491552
-0.00845513
-0.00908864
-0.00758359
-0.00932598
-0.00989415
-0.00940484
-0.00997896
-0.00953159
-0.00954533
-0.0108993
-0.0113102
-0.000672957
-0.00191807
-0.0061913
-0.00663992
-0.00277083
-0.00347332
-0.00594437
-0.00483268
-0.00491769
-0.0084258
-0.00915049
-0.00753784
-0.00926367
-0.0100141
-0.00940273
-0.00998807
-0.00975635
-0.0096587
-0.0109722
-0.0116343
-0.000737814
-0.00203962
-0.00614922
-0.00658499
-0.00290074
-0.00349817
-0.00600257
-0.00500062
-0.00492282
-0.00839028
-0.00922162
-0.0075019
-0.00918488
-0.010144
-0.0094248
-0.00997055
-0.00998252
-0.00981832
-0.0110121
-0.0119078
-0.000808873
-0.00215672
-0.00611164
-0.00653208
-0.0030336
-0.00352431
-0.0060567
-0.00517493
-0.00493246
-0.00834729
-0.00930202
-0.00747923
-0.00908797
-0.0102801
-0.00947746
-0.0099277
-0.0101963
-0.0100284
-0.0110421
-0.0121073
-0.000886746
-0.00226861
-0.00607894
-0.00648151
-0.00316873
-0.00355338
-0.00610473
-0.00535521
-0.00494883
-0.00829534
-0.00939102
-0.007474
-0.00897203
-0.0104172
-0.00956715
-0.00986528
-0.0103829
-0.0102836
-0.0110885
-0.0122247
-0.000972012
-0.00237459
-0.00605129
-0.00643368
-0.00330543
-0.00358732
-0.00614486
-0.00554054
-0.00497446
-0.00823301
-0.00948672
-0.00749099
-0.00883826
-0.010548
-0.00969864
-0.00979342
-0.0105286
-0.0105706
-0.0111747
-0.0122748
-0.00106527
-0.00247415
-0.00602854
-0.0063894
-0.00344226
-0.00362804
-0.0061765
-0.00572905
-0.00501225
-0.00815966
-0.0095859
-0.00753496
-0.00869034
-0.0106634
-0.00987357
-0.00972536
-0.0106242
-0.0108713
-0.0113141
-0.0122886
-0.00116716
-0.00256678
-0.0060102
-0.00634987
-0.00357724
-0.00367708
-0.00619978
-0.00591839
-0.00506522
-0.00807585
-0.00968467
-0.00760939
-0.008534
-0.0107538
-0.0100902
-0.00967587
-0.0106654
-0.0111672
-0.0115068
-0.0122976
-0.00127822
-0.00265221
-0.00599554
-0.00631664
-0.00370854
-0.00373515
-0.00621569
-0.00610539
-0.00513586
-0.00798409
-0.0097781
-0.00771586
-0.00837719
-0.0108105
-0.0103428
-0.0096594
-0.0106529
-0.0114422
-0.011747
-0.0123246
-0.00139885
-0.00273052
-0.00598308
-0.00629172
-0.00383474
-0.00380228
-0.0062265
-0.00628627
-0.00522557
-0.00788813
-0.00986145
-0.00785394
-0.00822876
-0.0108266
-0.0106224
-0.00969053
-0.0105917
-0.0116789
-0.0120283
-0.0123844
-0.00152951
-0.00280209
-0.00597046
-0.0062775
-0.00395553
-0.00387749
-0.00623502
-0.00645814
-0.00533425
-0.0077915
-0.00993169
-0.00802182
-0.00809768
-0.0107988
-0.0109171
-0.00978244
-0.0104945
-0.0118566
-0.0123414
-0.0124914
-0.0016703
-0.00286773
-0.00595511
-0.00627619
-0.00407174
-0.00395859
-0.00624433
-0.00661889
-0.00546033
-0.00769857
-0.00998654
-0.00821597
-0.00799317
-0.0107273
-0.0112111
-0.00994246
-0.0103836
-0.0119565
-0.0126658
-0.0126613
-0.00182122
-0.00292858
-0.0059342
-0.00628949
-0.00418493
-0.0040425
-0.00625782
-0.00676818
-0.00560088
-0.00761392
-0.0100244
-0.00843154
-0.00792361
-0.0106155
-0.0114872
-0.0101705
-0.0102865
-0.0119707
-0.0129682
-0.012902
-0.00198212
-0.00298605
-0.00590484
-0.00631815
-0.00429808
-0.00412607
-0.0062774
-0.00690702
-0.00575235
-0.00754034
-0.0100452
-0.00866309
-0.00789492
-0.0104705
-0.0117308
-0.0104601
-0.0102289
-0.0119058
-0.0132139
-0.0132013
-0.00215247
-0.00304205
-0.00586447
-0.00636181
-0.00441528
-0.00420611
-0.00630297
-0.0070383
-0.00591146
-0.00747868
-0.0100506
-0.00890508
-0.00791142
-0.0103026
-0.0119286
-0.0107991
-0.0102311
-0.0117808
-0.0133757
-0.0135272
-0.0023315
-0.00309861
-0.00581143
-0.00641921
-0.00454117
-0.00427965
-0.00633264
-0.00716719
-0.00607641
-0.00742807
-0.0100422
-0.00915392
-0.00797733
-0.0101235
-0.0120671
-0.0111704
-0.0103093
-0.0116222
-0.0134382
-0.0138389
-0.00251818
-0.00315776
-0.00574504
-0.00648788
-0.00468053
-0.00434575
-0.0063631
-0.00729826
-0.00624815
-0.00738664
-0.0100189
-0.00940681
-0.00809645
-0.00994518
-0.012136
-0.0115525
-0.0104744
-0.0114607
-0.0133978
-0.0140973
-0.0027111
-0.00322186
-0.00566575
-0.00656389
-0.00483747
-0.00440554
-0.00638955
-0.00743465
-0.00642969
-0.00735275
-0.00997664
-0.00966008
-0.00827159
-0.00978086
-0.0121306
-0.0119196
-0.0107273
-0.0113309
-0.0132661
-0.0142705
-0.00290832
-0.00329349
-0.00557529
-0.0066419
-0.0050151
-0.00446187
-0.00640575
-0.00757739
-0.006626
-0.00732831
-0.00991168
-0.00990696
-0.00850163
-0.00964517
-0.012054
-0.0122446
-0.011055
-0.011267
-0.0130715
-0.0143383
-0.00310766
-0.00337534
-0.00547635
-0.0067158
-0.00521526
-0.00452057
-0.00640498
-0.00772286
-0.00684401
-0.00731929
-0.00982063
-0.0101369
-0.00878074
-0.00955427
-0.0119186
-0.0125035
-0.0114317
-0.0112939
-0.0128526
-0.0142969
-0.00330686
-0.00346992
-0.00537314
-0.00677826
-0.0054379
-0.00459093
-0.00638357
-0.00786514
-0.00708765
-0.00733397
-0.00970358
-0.0103365
-0.00909788
-0.00952279
-0.0117439
-0.0126796
-0.0118257
-0.0114204
-0.0126518
-0.0141632
-0.00350319
-0.00357906
-0.00527177
-0.00682136
-0.00568017
-0.00468553
-0.00634315
-0.00799171
-0.00735358
-0.00738364
-0.00956841
-0.0104911
-0.00943668
-0.00956069
-0.0115542
-0.0127669
-0.0122052
-0.011638
-0.0125071
-0.0139698
-0.00369435
-0.00370389
-0.00517892
-0.0068397
-0.00593678
-0.00481579
-0.00628967
-0.00808806
-0.00763372
-0.00747811
-0.00942753
-0.0105915
-0.00977812
-0.00967031
-0.0113771
-0.0127705
-0.012539
-0.0119246
-0.0124438
-0.0137552
-0.00387875
-0.00384453
-0.00510137
-0.00683071
-0.00619805
-0.0049892
-0.00623337
-0.00814456
-0.00791739
-0.00762104
-0.00929629
-0.0106369
-0.010103
-0.00984327
-0.0112377
-0.0127082
-0.0128015
-0.0122484
-0.0124717
-0.0135558
-0.00405517
-0.00399947
-0.00504594
-0.0067942
-0.00645216
-0.0052091
-0.00618995
-0.00815868
-0.00818877
-0.00780831
-0.00919103
-0.0106334
-0.0103946
-0.0100647
-0.0111522
-0.0126062
-0.0129797
-0.0125731
-0.0125862
-0.0134006
-0.00422322
-0.00416579
-0.00501744
-0.00673353
-0.00668669
-0.00547311
-0.00617821
-0.00813529
-0.00843033
-0.00802994
-0.0091253
-0.010592
-0.0106408
-0.010318
-0.0111273
-0.0124901
-0.0130767
-0.0128636
-0.0127683
-0.0133125
-0.00438307
-0.0043398
-0.00501843
-0.00665685
-0.00689258
-0.00577444
-0.00621302
-0.00808392
-0.00862955
-0.00827201
-0.00910563
-0.0105282
-0.0108345
-0.0105846
-0.0111629
-0.0123819
-0.0131079
-0.0130951
-0.0129851
-0.0133028
-0.00453446
-0.00451771
-0.00505063
-0.00657508
-0.00706401
-0.00609985
-0.00630218
-0.00802207
-0.00878195
-0.00851781
-0.00913055
-0.0104566
-0.0109754
-0.0108458
-0.0112538
-0.0122999
-0.0130943
-0.0132584
-0.0131993
-0.0133633
-0.00467814
-0.0046952
-0.00511416
-0.00650123
-0.00719838
-0.00643058
-0.00644648
-0.00796993
-0.00888982
-0.00875294
-0.00919461
-0.010389
-0.0110681
-0.0110869
-0.0113875
-0.0122565
-0.0130579
-0.0133599
-0.013381
-0.013465
-0.00481553
-0.00486781
-0.00520737
-0.00644903
-0.0072975
-0.00674719
-0.00664154
-0.00794264
-0.00895979
-0.00896901
-0.00929038
-0.0103355
-0.0111195
-0.0112973
-0.011549
-0.0122556
-0.0130171
-0.0134148
-0.0135191
-0.0135755
-0.00494841
-0.00503403
-0.0053269
-0.0064251
-0.00736818
-0.00703843
-0.00687092
-0.00794781
-0.00900428
-0.00916135
-0.00941034
-0.0103037
-0.0111387
-0.011469
-0.0117234
-0.0122963
-0.0129861
-0.0134382
-0.0136171
-0.0136747
-0.00508002
-0.00519646
-0.00546365
-0.00642916
-0.00742045
-0.00730008
-0.00711673
-0.00798658
-0.00903635
-0.00933067
-0.00954818
-0.0102972
-0.0111361
-0.0115975
-0.0118954
-0.0123748
-0.0129762
-0.013442
-0.0136804
-0.0137545
-0.00521215
-0.00535468
-0.0056142
-0.00646086
-0.00746337
-0.00753078
-0.00736835
-0.00805741
-0.00906319
-0.00947804
-0.00969821
-0.0103184
-0.0111231
-0.0116835
-0.0120479
-0.0124792
-0.0129976
-0.0134416
-0.013716
-0.0138139
-0.00534612
-0.00550989
-0.00577318
-0.00651821
-0.00750358
-0.00773107
-0.00761895
-0.00815696
-0.00909021
-0.00960332
-0.00985481
-0.0103685
-0.0111105
-0.0117331
-0.0121685
-0.0125884
-0.01305
-0.0134547
-0.0137342
-0.0138531
-0.00548357
-0.00566298
-0.00593688
-0.00659812
-0.00754694
-0.00790506
-0.0078626
-0.00828201
-0.00912341
-0.00970619
-0.0100089
-0.0104456
-0.0111074
-0.0117559
-0.0122556
-0.0126854
-0.0131166
-0.0134885
-0.0137493
-0.0138737
-0.00562503
-0.00581488
-0.00610267
-0.00669797
-0.0075976
-0.00805685
-0.00809452
-0.00842729
-0.0091677
-0.00978818
-0.0101504
-0.0105437
-0.0111224
-0.0117618
-0.0123132
-0.0127649
-0.0131801
-0.0135355
-0.013773
-0.0138826
-0.0057706
-0.00596603
-0.00627002
-0.00681515
-0.007658
-0.00818969
-0.00831161
-0.00858677
-0.0092261
-0.00985539
-0.0102738
-0.0106516
-0.0111599
-0.011762
-0.0123423
-0.0128262
-0.0132349
-0.0135837
-0.0138094
-0.0138933
-0.00592064
-0.00611778
-0.00643676
-0.00694632
-0.00773055
-0.00830832
-0.00851158
-0.00875511
-0.00929965
-0.00991303
-0.0103761
-0.0107578
-0.0112171
-0.0117683
-0.0123455
-0.0128619
-0.0132782
-0.0136232
-0.0138511
-0.0139154
-0.00607534
-0.00627007
-0.00660252
-0.00708856
-0.00781673
-0.00841767
-0.00869325
-0.00892671
-0.00938847
-0.00996603
-0.0104568
-0.0108535
-0.0112837
-0.0117889
-0.0123376
-0.0128677
-0.0133041
-0.0136479
-0.0138828
-0.0139426
-0.00623462
-0.00642536
-0.00676585
-0.00723917
-0.00791707
-0.00852143
-0.00885596
-0.00909529
-0.00949149
-0.0100214
-0.0105191
-0.010932
-0.0113462
-0.0118178
-0.0123318
-0.0128509
-0.0133066
-0.0136584
-0.0138993
-0.0139656
-0.00639774
-0.00658276
-0.00692814
-0.00739499
-0.00803058
-0.00862499
-0.00900245
-0.00925542
-0.00960423
-0.0100833
-0.0105685
-0.0109923
-0.0113982
-0.0118404
-0.0123253
-0.0128192
-0.0132789
-0.0136474
-0.0138968
-0.0139754
-0.006565
-0.00674368
-0.00708973
-0.00755326
-0.00815534
-0.00873227
-0.00913752
-0.00940532
-0.00971971
-0.0101497
-0.0106082
-0.0110329
-0.0114375
-0.0118523
-0.0123088
-0.0127782
-0.013225
-0.0136054
-0.0138669
-0.0139607
-0.00673616
-0.00691114
-0.00725105
-0.00771253
-0.00828937
-0.00884425
-0.00926382
-0.00954597
-0.00983634
-0.0102201
-0.0106434
-0.0110534
-0.0114544
-0.0118487
-0.0122724
-0.0127212
-0.0131509
-0.013531
-0.0138037
-0.0139124
-0.0069095
-0.0070782
-0.00741478
-0.00787289
-0.00843034
-0.0089638
-0.00938563
-0.00967722
-0.00995263
-0.0102931
-0.0106753
-0.0110591
-0.0114436
-0.0118198
-0.0122079
-0.0126312
-0.0130477
-0.013422
-0.0137037
-0.0138251
-0.00708625
-0.007251
-0.00758078
-0.00803242
-0.0085745
-0.00909021
-0.00950954
-0.00980323
-0.0100674
-0.010368
-0.0107024
-0.0110499
-0.0114024
-0.011753
-0.0121061
-0.0124952
-0.0128992
-0.0132685
-0.0135597
-0.0136955
-0.00726819
-0.00742916
-0.00774858
-0.00819152
-0.00872121
-0.00921977
-0.00963529
-0.00993345
-0.0101896
-0.0104527
-0.0107327
-0.0110242
-0.0113178
-0.0116183
-0.0119327
-0.0122885
-0.0126846
-0.0130594
-0.0133619
-0.0135221
-0.00745162
-0.00760642
-0.00792015
-0.00835188
-0.0088693
-0.00935312
-0.00976135
-0.0100674
-0.010332
-0.0105753
-0.0107995
-0.0110008
-0.0111824
-0.011371
-0.0115896
-0.0118651
-0.0122156
-0.0126053
-0.0129843
-0.0132844
-0.00763622
-0.00778797
-0.00809444
-0.00851059
-0.00901111
-0.00948687
-0.00989181
-0.0102034
-0.0104879
-0.0107707
-0.0110303
-0.0111933
-0.0112314
-0.0112556
-0.0113251
-0.0114205
-0.0114974
-0.0115101
-0.0114645
-0.011432
-0.00783594
-0.00797483
-0.00826187
-0.00865166
-0.00912129
-0.00958644
-0.0100218
-0.0103522
-0.0105512
-0.0106566
-0.0107519
-0.0108721
-0.0109929
-0.0110987
-0.0111769
-0.011226
-0.0112572
-0.0112984
-0.0113712
-0.0115222
-0.00805789
-0.00821788
-0.0084772
-0.00880985
-0.00921745
-0.00960474
-0.0099339
-0.0101892
-0.010396
-0.0105716
-0.0107607
-0.0109593
-0.0111306
-0.0112668
-0.0113452
-0.0113594
-0.0113139
-0.0112214
-0.0111213
-0.0110907
-0.00822563
-0.00831784
-0.00853318
-0.0088367
-0.00921632
-0.00958141
-0.00990537
-0.0101734
-0.0104079
-0.0106007
-0.0107765
-0.0109349
-0.0110499
-0.0111438
-0.0112652
-0.0114547
-0.0117562
-0.0121705
-0.0126475
-0.0130962
-0.00845277
-0.00857058
-0.00869836
-0.00889854
-0.00921934
-0.00956525
-0.00990042
-0.0101897
-0.0104377
-0.0106492
-0.0108345
-0.0109977
-0.0111245
-0.0111868
-0.0112019
-0.0111692
-0.0110874
-0.0109848
-0.0109118
-0.0109561
-0.00860283
-0.00869564
-0.00878869
-0.00894701
-0.00923515
-0.00956667
-0.00990053
-0.0102013
-0.0104586
-0.010675
-0.0108697
-0.0110223
-0.0111278
-0.0111682
-0.0111606
-0.011142
-0.0111364
-0.0111749
-0.0112842
-0.0115212
-0.00142917
-0.00664077
-0.0140703
-0.0194961
-0.0206899
-0.0195563
-0.0185896
-0.0183405
-0.0183174
-0.0181143
-0.0176942
-0.0171994
-0.0168144
-0.0166384
-0.0166046
-0.0166027
-0.0165063
-0.0162683
-0.0160665
-0.0160301
-0.0160203
-0.0159409
-0.015868
-0.0158546
-0.015881
-0.0159202
-0.0159644
-0.0159954
-0.015992
-0.0159925
-0.0160215
-0.0160385
-0.0160456
-0.0160889
-0.0161605
-0.0162072
-0.0162179
-0.0162267
-0.0162745
-0.0163199
-0.0163254
-0.0163592
-0.0165111
-0.0167773
-0.0170521
-0.0171903
-0.0171893
-0.0171204
-0.0170584
-0.0170374
-0.0170599
-0.0171031
-0.0171672
-0.0172902
-0.017459
-0.0175935
-0.0176487
-0.017679
-0.0177331
-0.0178257
-0.0179263
-0.0179913
-0.0180533
-0.0181268
-0.0181948
-0.0182638
-0.0183634
-0.0184384
-0.0185006
-0.0185709
-0.0186301
-0.0186665
-0.0187205
-0.01879
-0.0188404
-0.018898
-0.0189484
-0.0190308
-0.0190821
-0.0191223
-0.0191536
-0.0192422
-0.0193375
-0.0194366
-0.0195113
-0.0195698
-0.019635
-0.0196933
-0.0198047
-0.0198599
-0.0199568
-0.0200437
-0.0201071
-0.0201901
-0.0202506
-0.0203145
-0.0204267
-0.0204424
-0.0204878
-0.0206273
-0.00203822
-0.00676905
-0.0139801
-0.0193474
-0.020601
-0.0195121
-0.0185631
-0.0183246
-0.0183076
-0.0181075
-0.0176888
-0.0171943
-0.0168091
-0.0166331
-0.0165999
-0.0165987
-0.0165032
-0.0162654
-0.0160636
-0.0160276
-0.0160182
-0.015939
-0.0158662
-0.0158529
-0.0158794
-0.0159188
-0.0159631
-0.0159941
-0.0159907
-0.0159911
-0.0160202
-0.0160373
-0.0160443
-0.0160877
-0.0161593
-0.0162062
-0.0162169
-0.0162257
-0.0162735
-0.016319
-0.0163245
-0.0163584
-0.0165102
-0.0167765
-0.0170515
-0.0171898
-0.0171888
-0.0171199
-0.0170579
-0.017037
-0.0170594
-0.0171026
-0.0171667
-0.0172898
-0.0174586
-0.0175932
-0.0176484
-0.0176787
-0.0177328
-0.0178254
-0.017926
-0.0179911
-0.018053
-0.0181265
-0.0181946
-0.0182636
-0.0183631
-0.0184381
-0.0185004
-0.0185707
-0.0186299
-0.0186663
-0.0187203
-0.0187898
-0.0188402
-0.0188979
-0.0189483
-0.0190306
-0.019082
-0.0191222
-0.0191535
-0.0192421
-0.0193374
-0.0194364
-0.0195112
-0.0195697
-0.0196349
-0.0196931
-0.0198046
-0.0198599
-0.0199567
-0.0200436
-0.020107
-0.0201901
-0.0202505
-0.0203144
-0.0204266
-0.0204424
-0.0204877
-0.0206272
-0.00263603
-0.00691493
-0.0138174
-0.019087
-0.0204579
-0.0194602
-0.0185332
-0.0183002
-0.0182891
-0.0180945
-0.0176803
-0.0171888
-0.0168049
-0.0166289
-0.0165953
-0.0165944
-0.0164995
-0.0162623
-0.0160607
-0.0160251
-0.0160161
-0.015937
-0.0158644
-0.0158513
-0.0158779
-0.0159175
-0.0159619
-0.015993
-0.0159896
-0.01599
-0.0160191
-0.0160362
-0.0160433
-0.0160866
-0.0161583
-0.0162052
-0.016216
-0.0162248
-0.0162727
-0.0163183
-0.0163238
-0.0163575
-0.0165094
-0.0167758
-0.017051
-0.0171894
-0.0171884
-0.0171194
-0.0170574
-0.0170365
-0.017059
-0.0171022
-0.0171663
-0.0172894
-0.0174583
-0.017593
-0.0176482
-0.0176784
-0.0177325
-0.0178252
-0.0179258
-0.0179909
-0.0180528
-0.0181263
-0.0181944
-0.0182634
-0.0183629
-0.018438
-0.0185002
-0.0185705
-0.0186298
-0.0186661
-0.0187202
-0.0187897
-0.0188401
-0.0188977
-0.0189481
-0.0190305
-0.0190818
-0.019122
-0.0191533
-0.0192419
-0.0193373
-0.0194363
-0.0195111
-0.0195696
-0.0196348
-0.019693
-0.0198045
-0.0198598
-0.0199566
-0.0200435
-0.0201069
-0.02019
-0.0202504
-0.0203144
-0.0204265
-0.0204423
-0.0204875
-0.0206271
-0.00319472
-0.00705557
-0.0136127
-0.018761
-0.0202638
-0.0193874
-0.0184884
-0.0182596
-0.0182554
-0.0180692
-0.0176635
-0.0171798
-0.0168008
-0.0166256
-0.0165903
-0.016588
-0.0164936
-0.0162579
-0.0160574
-0.0160221
-0.0160131
-0.0159342
-0.0158619
-0.0158492
-0.0158761
-0.0159159
-0.0159607
-0.015992
-0.0159886
-0.0159888
-0.0160181
-0.0160353
-0.0160424
-0.0160857
-0.0161574
-0.0162043
-0.016215
-0.0162239
-0.0162718
-0.0163174
-0.0163229
-0.0163566
-0.0165085
-0.0167751
-0.0170505
-0.0171891
-0.0171881
-0.0171189
-0.0170568
-0.017036
-0.0170586
-0.0171018
-0.0171658
-0.017289
-0.017458
-0.0175927
-0.0176479
-0.0176781
-0.0177322
-0.0178249
-0.0179256
-0.0179907
-0.0180526
-0.0181261
-0.0181942
-0.0182632
-0.0183628
-0.0184378
-0.0185001
-0.0185704
-0.0186296
-0.018666
-0.01872
-0.0187895
-0.0188399
-0.0188976
-0.018948
-0.0190303
-0.0190817
-0.0191219
-0.0191532
-0.0192418
-0.0193371
-0.0194362
-0.019511
-0.0195695
-0.0196347
-0.0196929
-0.0198044
-0.0198597
-0.0199565
-0.0200434
-0.0201068
-0.0201899
-0.0202503
-0.0203143
-0.0204265
-0.0204422
-0.0204874
-0.0206271
-0.00372931
-0.00720206
-0.013399
-0.0184155
-0.0200472
-0.0193035
-0.0184353
-0.0182063
-0.0182069
-0.0180302
-0.0176364
-0.0171651
-0.016795
-0.0166225
-0.0165845
-0.0165788
-0.0164845
-0.0162517
-0.0160536
-0.0160185
-0.016009
-0.0159302
-0.0158585
-0.0158462
-0.0158734
-0.0159137
-0.0159591
-0.015991
-0.0159876
-0.0159876
-0.0160169
-0.0160343
-0.0160416
-0.0160849
-0.0161564
-0.0162032
-0.0162141
-0.016223
-0.0162708
-0.0163164
-0.0163217
-0.0163555
-0.0165074
-0.0167742
-0.01705
-0.0171888
-0.0171876
-0.0171183
-0.0170561
-0.0170354
-0.0170581
-0.0171013
-0.0171653
-0.0172885
-0.0174576
-0.0175925
-0.0176476
-0.0176778
-0.0177319
-0.0178246
-0.0179254
-0.0179904
-0.0180523
-0.0181259
-0.018194
-0.018263
-0.0183626
-0.0184376
-0.0184999
-0.0185702
-0.0186295
-0.0186658
-0.0187198
-0.0187894
-0.0188398
-0.0188974
-0.0189478
-0.0190302
-0.0190816
-0.0191218
-0.019153
-0.0192416
-0.019337
-0.0194361
-0.0195109
-0.0195693
-0.0196345
-0.0196928
-0.0198043
-0.0198596
-0.0199564
-0.0200434
-0.0201068
-0.0201898
-0.0202502
-0.0203142
-0.0204264
-0.0204422
-0.0204873
-0.020627
-0.0042481
-0.00736282
-0.0131933
-0.0180679
-0.0198189
-0.019214
-0.0183804
-0.0181481
-0.0181504
-0.0179825
-0.0176016
-0.0171453
-0.016787
-0.0166184
-0.0165772
-0.0165668
-0.0164722
-0.0162436
-0.0160492
-0.0160145
-0.016004
-0.0159254
-0.0158545
-0.0158424
-0.0158696
-0.0159104
-0.0159568
-0.0159896
-0.0159866
-0.0159863
-0.0160153
-0.0160332
-0.0160412
-0.0160844
-0.0161553
-0.016202
-0.0162132
-0.0162223
-0.0162699
-0.0163151
-0.0163203
-0.0163541
-0.0165061
-0.016773
-0.0170492
-0.0171883
-0.0171871
-0.0171175
-0.0170552
-0.0170346
-0.0170575
-0.0171007
-0.0171646
-0.0172878
-0.0174572
-0.0175922
-0.0176473
-0.0176773
-0.0177314
-0.0178242
-0.0179251
-0.0179901
-0.018052
-0.0181256
-0.0181937
-0.0182627
-0.0183623
-0.0184374
-0.0184997
-0.01857
-0.0186293
-0.0186656
-0.0187196
-0.0187892
-0.0188396
-0.0188972
-0.0189476
-0.01903
-0.0190815
-0.0191216
-0.0191528
-0.0192415
-0.0193369
-0.019436
-0.0195108
-0.0195692
-0.0196344
-0.0196927
-0.0198042
-0.0198595
-0.0199563
-0.0200433
-0.0201067
-0.0201897
-0.0202502
-0.0203141
-0.0204263
-0.0204422
-0.0204872
-0.020627
-0.00475318
-0.00753833
-0.0130004
-0.017722
-0.0195793
-0.0191184
-0.0183252
-0.018088
-0.0180898
-0.0179299
-0.0175623
-0.0171221
-0.0167768
-0.0166128
-0.0165682
-0.0165524
-0.0164574
-0.0162342
-0.0160445
-0.01601
-0.0159984
-0.0159203
-0.0158504
-0.0158384
-0.0158651
-0.015906
-0.0159535
-0.0159877
-0.0159853
-0.0159846
-0.0160133
-0.0160319
-0.0160408
-0.016084
-0.0161541
-0.0162006
-0.0162125
-0.016222
-0.0162692
-0.0163137
-0.0163188
-0.0163527
-0.0165046
-0.0167713
-0.0170479
-0.0171876
-0.0171865
-0.0171165
-0.0170542
-0.0170338
-0.0170568
-0.0170999
-0.0171638
-0.0172871
-0.0174567
-0.0175917
-0.0176468
-0.0176768
-0.0177309
-0.0178237
-0.0179247
-0.0179898
-0.0180516
-0.0181252
-0.0181934
-0.0182624
-0.0183621
-0.0184372
-0.0184994
-0.0185698
-0.0186291
-0.0186654
-0.0187194
-0.018789
-0.0188394
-0.018897
-0.0189474
-0.0190299
-0.0190813
-0.0191215
-0.0191527
-0.0192413
-0.0193367
-0.0194358
-0.0195106
-0.0195691
-0.0196343
-0.0196925
-0.0198041
-0.0198594
-0.0199562
-0.0200432
-0.0201066
-0.0201897
-0.0202501
-0.020314
-0.0204263
-0.0204422
-0.0204871
-0.0206269
-0.00524183
-0.00772595
-0.0128235
-0.0173799
-0.0193273
-0.0190141
-0.0182688
-0.0180267
-0.0180261
-0.0178741
-0.0175202
-0.0170964
-0.0167645
-0.0166055
-0.0165576
-0.0165364
-0.0164412
-0.0162238
-0.0160393
-0.0160051
-0.0159923
-0.0159151
-0.0158468
-0.0158347
-0.0158605
-0.0159011
-0.0159494
-0.015985
-0.0159835
-0.0159825
-0.0160107
-0.0160301
-0.0160403
-0.0160835
-0.0161526
-0.0161988
-0.0162117
-0.0162221
-0.0162687
-0.0163123
-0.0163173
-0.0163514
-0.016503
-0.0167692
-0.0170461
-0.0171864
-0.0171856
-0.0171153
-0.017053
-0.017033
-0.0170561
-0.0170991
-0.0171628
-0.0172862
-0.017456
-0.0175912
-0.0176462
-0.0176761
-0.0177302
-0.0178231
-0.0179242
-0.0179893
-0.0180511
-0.0181247
-0.018193
-0.0182621
-0.0183617
-0.0184369
-0.0184992
-0.0185696
-0.0186289
-0.0186652
-0.0187192
-0.0187889
-0.0188392
-0.0188969
-0.0189472
-0.0190297
-0.0190812
-0.0191213
-0.0191524
-0.0192411
-0.0193366
-0.0194357
-0.0195105
-0.0195689
-0.0196341
-0.0196924
-0.019804
-0.0198593
-0.0199561
-0.0200431
-0.0201065
-0.0201896
-0.02025
-0.020314
-0.0204262
-0.0204422
-0.0204872
-0.0206269
-0.00570954
-0.00792449
-0.0126663
-0.0170436
-0.0190612
-0.018898
-0.0182099
-0.0179645
-0.0179604
-0.017816
-0.017476
-0.0170687
-0.0167506
-0.0165969
-0.016546
-0.0165193
-0.0164239
-0.0162128
-0.0160338
-0.0159998
-0.0159859
-0.0159099
-0.0158435
-0.0158316
-0.0158562
-0.015896
-0.0159448
-0.0159817
-0.0159813
-0.01598
-0.0160077
-0.016028
-0.0160396
-0.0160828
-0.0161507
-0.0161966
-0.0162108
-0.0162222
-0.0162684
-0.016311
-0.0163161
-0.0163507
-0.0165018
-0.0167669
-0.0170436
-0.0171847
-0.017184
-0.0171135
-0.0170514
-0.0170321
-0.0170555
-0.0170983
-0.0171618
-0.0172852
-0.0174552
-0.0175904
-0.0176454
-0.0176753
-0.0177294
-0.0178223
-0.0179235
-0.0179887
-0.0180504
-0.0181241
-0.0181925
-0.0182616
-0.0183613
-0.0184365
-0.0184989
-0.0185694
-0.0186286
-0.0186649
-0.0187189
-0.0187886
-0.018839
-0.0188967
-0.018947
-0.0190295
-0.019081
-0.0191211
-0.0191522
-0.0192409
-0.0193364
-0.0194355
-0.0195103
-0.0195687
-0.019634
-0.0196922
-0.0198038
-0.0198591
-0.0199559
-0.020043
-0.0201063
-0.0201895
-0.0202499
-0.0203139
-0.0204261
-0.0204423
-0.0204873
-0.0206268
-0.00615487
-0.00813428
-0.0125311
-0.0167138
-0.0187794
-0.0187671
-0.0181481
-0.017903
-0.0178939
-0.0177562
-0.0174298
-0.0170391
-0.0167348
-0.016587
-0.0165333
-0.0165011
-0.0164055
-0.0162009
-0.0160277
-0.0159942
-0.0159791
-0.0159045
-0.0158405
-0.015829
-0.0158523
-0.015891
-0.01594
-0.015978
-0.0159786
-0.0159771
-0.0160043
-0.0160256
-0.0160388
-0.0160818
-0.0161482
-0.0161939
-0.0162096
-0.0162223
-0.016268
-0.0163098
-0.0163153
-0.0163508
-0.0165013
-0.0167648
-0.0170409
-0.0171824
-0.0171818
-0.0171109
-0.0170493
-0.0170311
-0.0170551
-0.0170978
-0.017161
-0.0172843
-0.0174543
-0.0175895
-0.0176445
-0.0176744
-0.0177284
-0.0178214
-0.0179227