/*--------------------------------*- C++ -*----------------------------------*\
| =========                 |                                                 |
| \\      /  F ield         | OpenFOAM: The Open Source CFD Toolbox           |
|  \\    /   O peration     | Version:  2506                                  |
|   \\  /    A nd           | Website:  www.openfoam.com                      |
|    \\/     M anipulation  |                                                 |
\*---------------------------------------------------------------------------*/
FoamFile
{
    version     2.0;
    format      ascii;
    arch        "LSB;label=32;scalar=64";
    class       surfaceScalarField;
    location    "6.25";
    object      phi;
}
// * * * * * * * * * * * * * * * * * * * * * * * * * * * * * * * * * * * * * //

dimensions      [0 3 -1 0 0 0 0];

oriented        oriented;

internalField   nonuniform List<scalar> 
19000
(
1.19605e-06
6.35603e-07
1.08282e-06
-7.23582e-07
1.22314e-06
1.52867e-06
1.16001e-06
1.08628e-06
1.05206e-06
-9.40011e-07
1.17186e-06
1.58906e-07
1.20665e-06
1.03018e-06
1.11132e-06
2.26551e-07
1.17052e-06
8.45514e-07
1.107e-06
2.2519e-07
1.1303e-06
3.03472e-07
1.1278e-06
8.79044e-07
1.0969e-06
1.53746e-07
1.13391e-06
3.40956e-07
1.14023e-06
-1.07545e-07
1.15e-06
9.89543e-08
1.1545e-06
-2.46756e-08
1.15052e-06
7.94705e-08
1.15612e-06
9.22017e-08
1.21967e-07
1.12868e-06
1.25062e-06
6.09242e-07
1.13225e-06
-6.05207e-07
1.28035e-06
1.38057e-06
1.22273e-06
1.1439e-06
1.11414e-06
-8.31426e-07
1.23295e-06
4.00946e-08
1.26472e-06
9.98405e-07
1.16571e-06
3.25561e-07
1.22595e-06
7.8528e-07
1.16387e-06
2.87262e-07
1.17967e-06
2.87677e-07
1.20129e-06
8.57429e-07
1.15757e-06
1.97465e-07
1.20367e-06
2.94852e-07
1.19904e-06
-1.02916e-07
1.22422e-06
7.37796e-08
1.20778e-06
-8.2377e-09
1.22664e-06
6.06044e-08
1.20129e-06
1.1756e-07
1.06427e-07
1.21683e-06
1.30829e-06
5.83739e-07
1.18577e-06
-4.82695e-07
1.33265e-06
1.2337e-06
1.29674e-06
1.17981e-06
1.18489e-06
-7.19577e-07
1.29354e-06
-6.85512e-08
1.32648e-06
9.65462e-07
1.23263e-06
4.19417e-07
1.28229e-06
7.35623e-07
1.23529e-06
3.34261e-07
1.23131e-06
2.91657e-07
1.28047e-06
8.08266e-07
1.22276e-06
2.55172e-07
1.26675e-06
2.50863e-07
1.25727e-06
-9.34333e-08
1.2832e-06
4.78468e-08
1.26716e-06
7.79949e-09
1.27949e-06
4.82806e-08
1.26773e-06
1.29315e-07
1.11758e-07
1.2624e-06
1.36876e-06
5.59083e-07
1.24533e-06
-3.59267e-07
1.38315e-06
1.09587e-06
1.3804e-06
1.18256e-06
1.26314e-06
-6.02315e-07
1.35426e-06
-1.59676e-07
1.38984e-06
9.29879e-07
1.30995e-06
4.99306e-07
1.34254e-06
7.03039e-07
1.31646e-06
3.60336e-07
1.28834e-06
3.19776e-07
1.34713e-06
7.49475e-07
1.29385e-06
3.08459e-07
1.31997e-06
2.24741e-07
1.31566e-06
-8.91293e-08
1.33383e-06
2.96779e-08
1.32636e-06
1.52761e-08
1.3313e-06
4.33356e-08
1.3279e-06
1.32714e-07
1.20655e-07
1.31901e-06
1.43198e-06
5.3546e-07
1.31341e-06
-2.40703e-07
1.43253e-06
9.76752e-07
1.46754e-06
1.14755e-06
1.34534e-06
-4.8011e-07
1.41213e-06
-2.26463e-07
1.45208e-06
8.89922e-07
1.3932e-06
5.58189e-07
1.40638e-06
6.89862e-07
1.39644e-06
3.70271e-07
1.35432e-06
3.61896e-07
1.40351e-06
7.00288e-07
1.3693e-06
3.42671e-07
1.37731e-06
2.16733e-07
1.37628e-06
-8.81036e-08
1.38986e-06
1.61e-08
1.38729e-06
1.78422e-08
1.39028e-06
4.03488e-08
1.38868e-06
1.34315e-07
1.288e-07
1.38053e-06
1.49766e-06
5.13475e-07
1.39129e-06
-1.34331e-07
1.48333e-06
8.84716e-07
1.55022e-06
1.08066e-06
1.42917e-06
-3.59063e-07
1.46722e-06
-2.64514e-07
1.51165e-06
8.45491e-07
1.4762e-06
5.9364e-07
1.47304e-06
6.9302e-07
1.46961e-06
3.73701e-07
1.42861e-06
4.02899e-07
1.46131e-06
6.67584e-07
1.44641e-06
3.57571e-07
1.44525e-06
2.17894e-07
1.44195e-06
-8.48009e-08
1.4532e-06
4.85365e-09
1.45329e-06
1.775e-08
1.45603e-06
3.76057e-08
1.45544e-06
1.34911e-07
1.36514e-07
1.44772e-06
1.56579e-06
4.93906e-07
1.47786e-06
-4.64079e-08
1.5392e-06
8.23382e-07
1.62441e-06
9.95447e-07
1.51454e-06
-2.49197e-07
1.52331e-06
-2.7328e-07
1.56941e-06
7.99388e-07
1.55518e-06
6.07877e-07
1.54225e-06
7.05942e-07
1.53872e-06
3.77238e-07
1.50708e-06
4.34536e-07
1.52657e-06
6.48098e-07
1.52392e-06
3.60219e-07
1.5215e-06
2.20313e-07
1.51434e-06
-7.76407e-08
1.52253e-06
-3.33345e-09
1.52402e-06
1.6255e-08
1.52697e-06
3.46609e-08
1.52763e-06
1.34244e-07
1.43539e-07
1.52061e-06
1.63673e-06
4.77301e-07
1.57015e-06
2.01798e-08
1.60335e-06
7.90176e-07
1.69213e-06
9.06668e-07
1.60202e-06
-1.59084e-07
1.58529e-06
-2.56552e-07
1.62834e-06
7.56336e-07
1.63018e-06
6.06038e-07
1.6145e-06
7.21627e-07
1.60963e-06
3.82106e-07
1.58667e-06
4.57497e-07
1.59876e-06
6.36007e-07
1.60255e-06
3.56426e-07
1.60244e-06
2.20425e-07
1.59304e-06
-6.82425e-08
1.59759e-06
-7.87772e-09
1.59881e-06
1.50295e-08
1.60164e-06
3.18358e-08
1.60369e-06
1.32196e-07
1.49362e-07
1.59786e-06
1.7111e-06
4.63779e-07
1.665e-06
6.62743e-08
1.67724e-06
7.77938e-07
1.75861e-06
8.25296e-07
1.69107e-06
-9.15477e-08
1.65635e-06
-2.21825e-07
1.69236e-06
7.20326e-07
1.70412e-06
5.94271e-07
1.69068e-06
7.35068e-07
1.68635e-06
3.86441e-07
1.66785e-06
4.75993e-07
1.67648e-06
6.27383e-07
1.68392e-06
3.48984e-07
1.68663e-06
2.17709e-07
1.67699e-06
-5.8603e-08
1.67845e-06
-9.33368e-09
1.67823e-06
1.52529e-08
1.67995e-06
3.01127e-08
1.68293e-06
1.29211e-07
1.53723e-07
1.67857e-06
1.78937e-06
4.53135e-07
1.7605e-06
9.51438e-08
1.76034e-06
7.78094e-07
1.8286e-06
7.57041e-07
1.78056e-06
-4.35079e-08
1.737e-06
-1.78273e-07
1.76472e-06
6.92613e-07
1.78093e-06
5.78063e-07
1.77175e-06
7.44242e-07
1.76972e-06
3.8847e-07
1.7529e-06
4.92814e-07
1.75977e-06
6.20509e-07
1.76953e-06
3.39232e-07
1.77423e-06
2.13003e-07
1.76548e-06
-4.98506e-08
1.76483e-06
-8.68395e-09
1.76293e-06
1.71542e-08
1.76274e-06
3.03017e-08
1.76571e-06
1.26243e-07
1.56846e-07
1.76259e-06
1.87183e-06
4.45049e-07
1.85617e-06
1.10804e-07
1.85097e-06
7.83304e-07
1.90467e-06
7.03332e-07
1.8701e-06
-8.93702e-09
1.8259e-06
-1.34074e-07
1.84675e-06
6.71768e-07
1.86367e-06
5.61138e-07
1.85839e-06
7.49523e-07
1.85883e-06
3.88033e-07
1.84344e-06
5.08205e-07
1.84922e-06
6.14733e-07
1.86027e-06
3.28179e-07
1.86573e-06
2.07541e-07
1.85812e-06
-4.22434e-08
1.85618e-06
-6.73715e-09
1.85291e-06
2.0424e-08
1.85066e-06
3.25467e-08
1.85266e-06
1.24245e-07
1.59302e-07
1.8502e-06
1.95869e-06
4.39194e-07
1.95259e-06
1.16906e-07
1.94725e-06
7.88649e-07
1.98754e-06
6.63042e-07
1.96062e-06
1.79737e-08
1.92113e-06
-9.45833e-08
1.93776e-06
6.55138e-07
1.95359e-06
5.45316e-07
1.95086e-06
7.5225e-07
1.95267e-06
3.86221e-07
1.93975e-06
5.21123e-07
1.94475e-06
6.09737e-07
1.95622e-06
3.16711e-07
1.96131e-06
2.02446e-07
1.95459e-06
-3.55255e-08
1.95186e-06
-4.00186e-09
1.9476e-06
2.46818e-08
1.94373e-06
3.64226e-08
1.94419e-06
1.23779e-07
1.61669e-07
1.94182e-06
2.05018e-06
4.35207e-07
2.05068e-06
1.164e-07
2.04775e-06
7.91582e-07
2.07691e-06
6.33879e-07
2.05368e-06
4.12023e-08
2.02115e-06
-6.2051e-08
2.03599e-06
6.403e-07
2.05019e-06
5.3111e-07
2.0489e-06
7.53546e-07
2.05078e-06
3.8434e-07
2.04131e-06
5.30594e-07
2.0457e-06
6.05345e-07
2.05692e-06
3.05495e-07
2.06085e-06
1.98511e-07
2.05456e-06
-2.92346e-08
2.05134e-06
-7.84744e-10
2.04633e-06
2.96923e-08
2.04151e-06
4.12425e-08
2.04036e-06
1.2493e-07
1.64299e-07
2.03773e-06
2.14656e-06
4.32646e-07
2.15131e-06
1.11653e-07
2.15163e-06
7.91266e-07
2.17234e-06
6.1317e-07
2.15074e-06
6.27947e-08
2.12506e-06
-3.63725e-08
2.13962e-06
6.25748e-07
2.15229e-06
5.18439e-07
2.15194e-06
7.53894e-07
2.153e-06
3.83278e-07
2.14738e-06
5.36213e-07
2.15126e-06
6.01469e-07
2.16183e-06
2.94921e-07
2.16418e-06
1.96165e-07
2.15782e-06
-2.2873e-08
2.15433e-06
2.70257e-09
2.1486e-06
3.54182e-08
2.14351e-06
4.6332e-08
2.14105e-06
1.27393e-07
1.67298e-07
2.13805e-06
2.24813e-06
4.31001e-07
2.25515e-06
1.04641e-07
2.2586e-06
7.87816e-07
2.27346e-06
5.98307e-07
2.25281e-06
8.34479e-08
2.23258e-06
-1.61506e-08
2.24744e-06
6.10889e-07
2.25879e-06
5.07091e-07
2.2594e-06
7.53289e-07
2.25923e-06
3.83442e-07
2.25741e-06
5.3803e-07
2.26087e-06
5.98019e-07
2.27068e-06
2.85109e-07
2.27134e-06
1.95507e-07
2.26444e-06
-1.5975e-08
2.26084e-06
6.29582e-09
2.25429e-06
4.19741e-08
2.2494e-06
5.12194e-08
2.24618e-06
1.30612e-07
1.70653e-07
2.24283e-06
2.3551e-06
4.29775e-07
2.36274e-06
9.70027e-08
2.36887e-06
7.81689e-07
2.38009e-06
5.87081e-07
2.36042e-06
1.0312e-07
2.34388e-06
3.90157e-10
2.35904e-06
5.95732e-07
2.36914e-06
4.96983e-07
2.3709e-06
7.51537e-07
2.36943e-06
3.84903e-07
2.37117e-06
5.36292e-07
2.37437e-06
5.94822e-07
2.38347e-06
2.76006e-07
2.38262e-06
1.96356e-07
2.37476e-06
-8.11151e-09
2.37121e-06
9.84565e-09
2.36367e-06
4.95132e-08
2.35916e-06
5.57315e-08
2.35586e-06
1.33907e-07
1.74325e-07
2.35219e-06
2.46762e-06
4.28549e-07
2.47465e-06
8.99784e-08
2.48297e-06
7.73361e-07
2.4922e-06
5.77857e-07
2.47387e-06
1.21451e-07
2.45942e-06
1.48358e-08
2.47461e-06
5.8054e-07
2.48335e-06
4.88249e-07
2.48642e-06
7.4846e-07
2.48382e-06
3.87508e-07
2.48882e-06
5.31289e-07
2.49199e-06
5.91654e-07
2.50046e-06
2.67532e-07
2.49847e-06
1.98348e-07
2.48927e-06
1.0882e-09
2.48589e-06
1.32248e-08
2.47733e-06
5.8073e-08
2.47306e-06
6.0005e-08
2.47036e-06
1.36603e-07
1.78254e-07
2.46643e-06
2.58585e-06
4.2699e-07
2.59144e-06
8.43888e-08
2.60157e-06
7.63237e-07
2.60988e-06
5.69545e-07
2.59331e-06
1.38022e-07
2.57971e-06
2.84349e-08
2.59467e-06
5.65576e-07
2.6018e-06
4.81125e-07
2.60629e-06
7.43968e-07
2.60283e-06
3.90964e-07
2.61078e-06
5.2334e-07
2.61411e-06
5.88324e-07
2.62196e-06
2.59681e-07
2.6193e-06
2.0101e-07
2.60848e-06
1.19104e-08
2.60537e-06
1.63325e-08
2.59598e-06
6.74691e-08
2.59154e-06
6.44362e-08
2.59002e-06
1.38125e-07
1.82306e-07
2.58597e-06
2.70999e-06
4.24825e-07
2.71368e-06
8.07002e-08
2.72524e-06
7.51682e-07
2.73335e-06
5.61436e-07
2.71888e-06
1.52492e-07
2.70509e-06
4.22176e-08
2.7197e-06
5.50974e-07
2.72511e-06
4.75712e-07
2.73104e-06
7.38039e-07
2.72703e-06
3.94975e-07
2.73751e-06
5.12857e-07
2.7411e-06
5.84732e-07
2.74824e-06
2.52546e-07
2.74546e-06
2.03791e-07
2.73286e-06
2.45068e-08
2.73006e-06
1.91335e-08
2.72025e-06
7.72762e-08
2.71512e-06
6.95663e-08
2.71513e-06
1.38117e-07
1.86213e-07
2.71122e-06
2.84027e-06
4.21825e-07
2.84183e-06
7.9136e-08
2.85451e-06
7.39008e-07
2.86284e-06
5.53105e-07
2.85067e-06
1.64655e-07
2.8358e-06
5.70927e-08
2.85005e-06
5.36723e-07
2.85392e-06
4.71845e-07
2.86127e-06
7.30687e-07
2.85692e-06
3.99327e-07
2.86936e-06
5.00411e-07
2.87324e-06
5.80859e-07
2.87951e-06
2.46273e-07
2.87721e-06
2.06094e-07
2.86289e-06
3.88257e-08
2.86031e-06
2.17083e-08
2.85068e-06
8.69069e-08
2.84433e-06
7.59213e-08
2.84591e-06
1.36529e-07
1.89608e-07
2.84252e-06
2.9769e-06
4.1782e-07
2.97627e-06
7.97668e-08
2.98989e-06
7.25392e-07
2.99857e-06
5.44423e-07
2.98879e-06
1.74432e-07
2.97212e-06
7.37639e-08
2.98614e-06
5.22708e-07
2.98883e-06
4.69155e-07
2.99754e-06
7.21975e-07
2.99298e-06
4.03884e-07
3.00672e-06
4.86669e-07
3.01085e-06
5.76732e-07
3.01611e-06
2.41013e-07
3.01484e-06
2.07361e-07
2.99906e-06
5.46053e-08
2.99648e-06
2.42879e-08
2.98767e-06
9.57225e-08
2.97976e-06
8.38316e-08
2.98256e-06
1.33724e-07
1.91993e-07
2.98017e-06
3.12012e-06
4.12702e-07
3.11732e-06
8.25662e-08
3.1319e-06
7.10812e-07
3.14075e-06
5.35581e-07
3.13334e-06
1.81835e-07
3.11452e-06
9.25862e-08
3.12846e-06
5.08771e-07
3.13038e-06
4.67229e-07
3.1403e-06
7.12061e-07
3.13566e-06
4.08527e-07
3.15005e-06
4.72275e-07
3.15442e-06
5.7236e-07
3.15851e-06
2.36927e-07
3.15869e-06
2.0718e-07
3.14185e-06
7.14454e-08
3.13892e-06
2.72201e-08
3.13152e-06
1.03123e-07
3.122e-06
9.33521e-08
3.12528e-06
1.30438e-07
1.9279e-07
3.12449e-06
3.2702e-06
4.06411e-07
3.26531e-06
8.7458e-08
3.28104e-06
6.9508e-07
3.28961e-06
5.27008e-07
3.28451e-06
1.86941e-07
3.26357e-06
1.13527e-07
3.27757e-06
4.94772e-07
3.27908e-06
4.65713e-07
3.28993e-06
7.01216e-07
3.28535e-06
4.13109e-07
3.29989e-06
4.57728e-07
3.30457e-06
5.67687e-07
3.30729e-06
2.34203e-07
3.30912e-06
2.05351e-07
3.29167e-06
8.8899e-08
3.28798e-06
3.0903e-08
3.28246e-06
1.08651e-07
3.27158e-06
1.04233e-07
3.27443e-06
1.27578e-07
1.91495e-07
3.27573e-06
3.42744e-06
3.98905e-07
3.42054e-06
9.436e-08
3.43768e-06
6.77938e-07
3.44548e-06
5.19201e-07
3.44255e-06
1.89872e-07
3.41981e-06
1.36271e-07
3.43393e-06
4.80648e-07
3.43534e-06
4.6431e-07
3.44676e-06
6.89796e-07
3.4424e-06
4.17469e-07
3.45677e-06
4.43354e-07
3.46186e-06
5.62593e-07
3.46304e-06
2.33026e-07
3.4665e-06
2.01894e-07
3.44889e-06
1.06505e-07
3.44405e-06
3.57485e-08
3.44063e-06
1.1207e-07
3.42895e-06
1.15907e-07
3.43045e-06
1.26078e-07
1.87859e-07
3.43409e-06
3.59218e-06
3.90132e-07
3.58334e-06
1.03207e-07
3.6021e-06
6.59173e-07
3.60873e-06
5.12571e-07
3.60781e-06
1.90796e-07
3.5837e-06
1.60376e-07
3.5979e-06
4.66454e-07
3.59949e-06
4.62717e-07
3.6111e-06
6.78185e-07
3.60711e-06
4.21455e-07
3.62113e-06
4.29341e-07
3.62679e-06
5.56931e-07
3.62628e-06
2.33532e-07
3.63117e-06
1.97003e-07
3.6139e-06
1.23779e-07
3.60749e-06
4.21607e-08
3.60615e-06
1.134e-07
3.59447e-06
1.2759e-07
3.59388e-06
1.26671e-07
1.82036e-07
3.5997e-06
3.7648e-06
3.80037e-07
3.75406e-06
1.13946e-07
3.77456e-06
6.38679e-07
3.77977e-06
5.07362e-07
3.78064e-06
1.8992e-07
3.75564e-06
1.85377e-07
3.76971e-06
4.52382e-07
3.77185e-06
4.60583e-07
3.78327e-06
6.66761e-07
3.77978e-06
4.24946e-07
3.79336e-06
4.15764e-07
3.7997e-06
5.50594e-07
3.79747e-06
2.35757e-07
3.8035e-06
1.90974e-07
3.78701e-06
1.40266e-07
3.77876e-06
5.04199e-08
3.77922e-06
1.12939e-07
3.76838e-06
1.38431e-07
3.76535e-06
1.29699e-07
1.74757e-07
3.77263e-06
3.94565e-06
3.68571e-07
3.93309e-06
1.26507e-07
3.9553e-06
6.16469e-07
3.95903e-06
5.03639e-07
3.96145e-06
1.87496e-07
3.936e-06
2.10826e-07
3.94964e-06
4.38745e-07
3.95271e-06
4.57511e-07
3.96364e-06
6.55829e-07
3.9607e-06
4.27888e-07
3.97386e-06
4.02596e-07
3.98093e-06
5.43533e-07
3.97705e-06
2.39638e-07
3.98385e-06
1.8417e-07
3.9686e-06
1.55517e-07
3.95835e-06
6.06628e-08
3.96008e-06
1.11219e-07
3.95091e-06
1.47599e-07
3.94543e-06
1.35173e-07
1.67105e-07
3.95309e-06
4.1351e-06
3.5572e-07
4.12083e-06
1.4078e-07
4.14465e-06
5.9265e-07
4.14695e-06
5.01334e-07
4.15063e-06
1.83822e-07
4.12518e-06
2.36276e-07
4.13797e-06
4.25958e-07
4.14238e-06
4.53101e-07
4.15261e-06
6.45591e-07
4.15018e-06
4.30326e-07
4.16304e-06
3.89732e-07
4.17085e-06
5.35721e-07
4.16539e-06
2.45099e-07
4.17261e-06
1.76947e-07
4.15899e-06
1.69144e-07
4.14676e-06
7.28858e-08
4.14913e-06
1.08849e-07
4.14222e-06
1.54516e-07
4.13476e-06
1.42631e-07
1.60415e-07
4.14145e-06
4.33351e-06
3.41508e-07
4.31768e-06
1.56611e-07
4.34295e-06
5.67386e-07
4.344e-06
5.00275e-07
4.34859e-06
1.79236e-07
4.32361e-06
2.61258e-07
4.33507e-06
4.14501e-07
4.34117e-06
4.47e-07
4.35067e-06
6.36093e-07
4.34859e-06
4.32405e-07
4.36127e-06
3.77044e-07
4.36991e-06
5.27081e-07
4.36291e-06
2.52107e-07
4.3702e-06
1.69648e-07
4.35853e-06
1.80819e-07
4.34445e-06
8.6964e-08
4.34678e-06
1.06524e-07
4.34244e-06
1.58849e-07
4.33386e-06
1.51213e-07
1.55912e-07
4.33836e-06
4.54128e-06
3.26006e-07
4.52408e-06
1.73808e-07
4.55058e-06
5.40881e-07
4.55066e-06
5.00203e-07
4.55575e-06
1.74139e-07
4.53176e-06
2.85253e-07
4.54137e-06
4.04887e-07
4.54942e-06
4.38952e-07
4.55831e-06
6.27197e-07
4.55634e-06
4.3438e-07
4.56897e-06
3.64418e-07
4.57855e-06
5.17501e-07
4.57003e-06
2.60619e-07
4.577e-06
1.6268e-07
4.5676e-06
1.90221e-07
4.5519e-06
1.02668e-07
4.55335e-06
1.05069e-07
4.55179e-06
1.60412e-07
4.54315e-06
1.59851e-07
1.54375e-07
4.54469e-06
4.75881e-06
3.0931e-07
4.74046e-06
1.92164e-07
4.76796e-06
5.13372e-07
4.76741e-06
5.00755e-07
4.77254e-06
1.69012e-07
4.75012e-06
3.07675e-07
4.75741e-06
3.97594e-07
4.76747e-06
4.28892e-07
4.77609e-06
6.18584e-07
4.77391e-06
4.36554e-07
4.7865e-06
3.51828e-07
4.79719e-06
5.06808e-07
4.78724e-06
2.70572e-07
4.7934e-06
1.56523e-07
4.78661e-06
1.97013e-07
4.76952e-06
1.19752e-07
4.76943e-06
1.05163e-07
4.77047e-06
1.59374e-07
4.76293e-06
1.67391e-07
1.55883e-07
4.76142e-06
4.98657e-06
2.91537e-07
4.96728e-06
2.11457e-07
4.99549e-06
4.8516e-07
4.99481e-06
5.01434e-07
4.9994e-06
1.64427e-07
4.97919e-06
3.27875e-07
4.9838e-06
3.92986e-07
4.99571e-06
4.1699e-07
5.00449e-06
6.09802e-07
5.00184e-06
4.39205e-07
5.01427e-06
3.3939e-07
5.02627e-06
4.94813e-07
5.01505e-06
2.81788e-07
5.01985e-06
1.51721e-07
5.01592e-06
2.00949e-07
4.99803e-06
1.37635e-07
4.9958e-06
1.07398e-07
4.99886e-06
1.56311e-07
4.99331e-06
1.72946e-07
1.59728e-07
4.98946e-06
5.22505e-06
2.72808e-07
5.20505e-06
2.31455e-07
5.23357e-06
4.56635e-07
5.23341e-06
5.01591e-07
5.23678e-06
1.61064e-07
5.21952e-06
3.45138e-07
5.22123e-06
3.9127e-07
5.23452e-06
4.03702e-07
5.24401e-06
6.00313e-07
5.24068e-06
4.42537e-07
5.25272e-06
3.27346e-07
5.26617e-06
4.8136e-07
5.25403e-06
2.93932e-07
5.25686e-06
1.48888e-07
5.25596e-06
2.01851e-07
5.23799e-06
1.55608e-07
5.2333e-06
1.12085e-07
5.23749e-06
1.52124e-07
5.23438e-06
1.76049e-07
1.64642e-07
5.22947e-06
5.47475e-06
2.53251e-07
5.4543e-06
2.51897e-07
5.48265e-06
4.28293e-07
5.48381e-06
5.00427e-07
5.48517e-06
1.597e-07
5.47161e-06
3.58706e-07
5.47039e-06
3.92482e-07
5.48439e-06
3.89707e-07
5.49511e-06
5.89592e-07
5.49103e-06
4.46611e-07
5.50233e-06
3.16052e-07
5.51734e-06
4.66347e-07
5.50475e-06
3.06522e-07
5.50504e-06
1.48599e-07
5.50713e-06
1.99759e-07
5.48999e-06
1.72748e-07
5.48263e-06
1.19449e-07
5.48709e-06
1.47667e-07
5.48639e-06
1.76748e-07
1.69342e-07
5.48169e-06
5.7362e-06
2.33008e-07
5.71563e-06
2.72467e-07
5.74318e-06
4.00747e-07
5.74661e-06
4.96998e-07
5.74511e-06
1.61196e-07
5.73579e-06
3.68031e-07
5.73198e-06
3.96291e-07
5.74584e-06
3.75844e-07
5.75824e-06
5.77197e-07
5.75352e-06
4.51327e-07
5.76363e-06
3.05937e-07
5.78022e-06
4.49763e-07
5.76779e-06
3.18952e-07
5.76507e-06
1.51314e-07
5.76983e-06
1.95e-07
5.75453e-06
1.88046e-07
5.74443e-06
1.29549e-07
5.74843e-06
1.43675e-07
5.74986e-06
1.75312e-07
1.73089e-07
5.74612e-06
6.00996e-06
2.12242e-07
5.98964e-06
2.92789e-07
6.0157e-06
3.7468e-07
6.02238e-06
4.90321e-07
6.0173e-06
1.66281e-07
6.01226e-06
3.73061e-07
6.00663e-06
4.0193e-07
6.0195e-06
3.62973e-07
6.03382e-06
5.62874e-07
6.02875e-06
4.56397e-07
6.03725e-06
2.97436e-07
6.05529e-06
4.31724e-07
6.04369e-06
3.30552e-07
6.03779e-06
1.57215e-07
6.04443e-06
1.88358e-07
6.03196e-06
2.00517e-07
6.01947e-06
1.42039e-07
6.0222e-06
1.40943e-07
6.02537e-06
1.72139e-07
1.75429e-07
6.02303e-06
6.29658e-06
1.91147e-07
6.27696e-06
3.12409e-07
6.30082e-06
3.50821e-07
6.31158e-06
4.79565e-07
6.30258e-06
1.75283e-07
6.3013e-06
3.74336e-07
6.29492e-06
4.08307e-07
6.30604e-06
3.51855e-07
6.32231e-06
5.46605e-07
6.31735e-06
4.61364e-07
6.32383e-06
2.90949e-07
6.34309e-06
4.12463e-07
6.33299e-06
3.40655e-07
6.32399e-06
1.66217e-07
6.33148e-06
1.80868e-07
6.3226e-06
2.094e-07
6.3085e-06
1.56135e-07
6.30911e-06
1.40334e-07
6.31366e-06
1.67583e-07
1.76181e-07
6.31291e-06
6.59667e-06
1.69948e-07
6.57826e-06
3.30817e-07
6.59922e-06
3.29856e-07
6.61451e-06
4.64282e-07
6.60187e-06
1.87925e-07
6.60332e-06
3.72886e-07
6.59744e-06
4.14187e-07
6.60626e-06
3.43028e-07
6.62419e-06
5.28677e-07
6.6199e-06
4.65653e-07
6.62415e-06
2.86704e-07
6.64419e-06
3.92418e-07
6.63624e-06
3.48607e-07
6.62447e-06
1.77987e-07
6.63165e-06
1.73691e-07
6.62683e-06
2.14212e-07
6.61213e-06
1.7084e-07
6.61002e-06
1.42446e-07
6.61536e-06
1.62244e-07
1.75151e-07
6.61638e-06
6.91083e-06
1.48907e-07
6.89421e-06
3.47442e-07
6.91168e-06
3.12378e-07
6.93147e-06
4.44501e-07
6.91607e-06
2.0332e-07
6.91891e-06
3.7005e-07
6.91468e-06
4.18415e-07
6.92098e-06
3.36726e-07
6.94003e-06
5.09626e-07
6.937e-06
4.68687e-07
6.93894e-06
2.84762e-07
6.95924e-06
3.72118e-07
6.95394e-06
3.53907e-07
6.93997e-06
1.91954e-07
6.94571e-06
1.67957e-07
6.94497e-06
2.14949e-07
6.93088e-06
1.8493e-07
6.9259e-06
1.47429e-07
6.93109e-06
1.57046e-07
1.72161e-07
6.93408e-06
7.23973e-06
1.28312e-07
7.22549e-06
3.61686e-07
7.23904e-06
2.98823e-07
7.26285e-06
4.20697e-07
7.24603e-06
2.20131e-07
7.24885e-06
3.67238e-07
7.24714e-06
4.20127e-07
7.25106e-06
3.32802e-07
7.27052e-06
4.90164e-07
7.26919e-06
4.70017e-07
7.26899e-06
2.8496e-07
7.28895e-06
3.52159e-07
7.28661e-06
3.56246e-07
7.27116e-06
2.07406e-07
7.27454e-06
1.64574e-07
7.27742e-06
2.12074e-07
7.26513e-06
1.9722e-07
7.2577e-06
1.54863e-07
7.26168e-06
1.53063e-07
1.67322e-07
7.26652e-06
7.58406e-06
1.08479e-07
7.57282e-06
3.72928e-07
7.58219e-06
2.8945e-07
7.60917e-06
3.93718e-07
7.59249e-06
2.36811e-07
7.59406e-06
3.65669e-07
7.59526e-06
4.1893e-07
7.59736e-06
3.30695e-07
7.61643e-06
4.71093e-07
7.61698e-06
4.69468e-07
7.61508e-06
2.86857e-07
7.63414e-06
3.331e-07
7.63472e-06
3.55663e-07
7.61865e-06
2.23479e-07
7.61911e-06
1.64113e-07
7.62471e-06
2.06479e-07
7.6153e-06
2.06627e-07
7.60618e-06
1.6398e-07
7.6082e-06
1.51048e-07
1.61365e-07
7.61415e-06
7.94456e-06
8.97336e-08
7.93691e-06
3.80571e-07
7.94204e-06
2.84328e-07
7.97107e-06
3.64684e-07
7.9561e-06
2.51776e-07
7.95553e-06
3.66239e-07
7.95949e-06
4.14975e-07
7.96065e-06
3.29539e-07
7.97863e-06
4.53106e-07
7.981e-06
4.67103e-07
7.97791e-06
2.8995e-07
7.99556e-06
3.15445e-07
7.99887e-06
3.52356e-07
7.98304e-06
2.39307e-07
7.9804e-06
1.66755e-07
7.98771e-06
1.99166e-07
7.98168e-06
2.12664e-07
7.97199e-06
1.73669e-07
7.97169e-06
1.51349e-07
1.55337e-07
7.97771e-06
8.32201e-06
7.24058e-08
8.31851e-06
3.84072e-07
8.31951e-06
2.83327e-07
8.3493e-06
3.34897e-07
8.33745e-06
2.63619e-07
8.33431e-06
3.69381e-07
8.34041e-06
4.0888e-07
8.34159e-06
3.28355e-07
8.35804e-06
4.36652e-07
8.36189e-06
4.63251e-07
8.358e-06
2.93839e-07
8.37396e-06
2.99485e-07
8.37965e-06
3.46666e-07
8.36488e-06
2.54079e-07
8.35932e-06
1.72319e-07
8.36717e-06
1.91316e-07
8.36491e-06
2.14925e-07
8.35556e-06
1.83021e-07
8.3532e-06
1.53708e-07
1.50231e-07
8.3583e-06
8.71725e-06
5.68198e-08
8.71837e-06
3.82948e-07
8.71553e-06
2.86168e-07
8.74465e-06
3.05781e-07
8.73706e-06
2.71205e-07
8.73144e-06
3.74998e-07
8.73864e-06
4.01682e-07
8.74073e-06
3.26265e-07
8.75555e-06
4.21832e-07
8.76039e-06
4.58418e-07
8.75583e-06
2.98398e-07
8.76994e-06
2.85375e-07
8.77765e-06
3.38952e-07
8.76474e-06
2.6699e-07
8.7568e-06
1.80262e-07
8.76402e-06
1.84097e-07
8.76555e-06
2.13389e-07
8.75747e-06
1.91103e-07
8.7535e-06
1.57676e-07
1.4664e-07
8.75709e-06
9.13116e-06
4.3278e-08
9.13729e-06
3.76822e-07
9.13105e-06
2.92403e-07
9.15802e-06
2.7881e-07
9.1555e-06
2.73729e-07
9.14797e-06
3.82531e-07
9.15502e-06
3.94624e-07
9.15848e-06
3.22813e-07
9.17196e-06
4.08352e-07
9.17715e-06
4.53224e-07
9.1719e-06
3.0365e-07
9.18401e-06
2.7326e-07
9.19364e-06
3.29327e-07
9.18338e-06
2.77247e-07
9.17377e-06
1.89872e-07
9.17937e-06
1.78498e-07
9.18426e-06
2.08502e-07
9.17838e-06
1.96978e-07
9.17337e-06
1.6269e-07
1.44754e-07
9.17525e-06
9.5647e-06
3.20342e-08
9.576e-06
3.65526e-07
9.56703e-06
3.01369e-07
9.5905e-06
2.55339e-07
9.59344e-06
2.70789e-07
9.58488e-06
3.91093e-07
9.59039e-06
3.89122e-07
9.59521e-06
3.17993e-07
9.6079e-06
3.95655e-07
9.61327e-06
4.47858e-07
9.60737e-06
3.09551e-07
9.61732e-06
2.63305e-07
9.62885e-06
3.17798e-07
9.62162e-06
2.84475e-07
9.61128e-06
2.00217e-07
9.61457e-06
1.75209e-07
9.62182e-06
2.01251e-07
9.61892e-06
1.99875e-07
9.61358e-06
1.68028e-07
1.44507e-07
9.61383e-06
1.00189e-05
2.32641e-08
1.00352e-05
3.4924e-07
1.00245e-05
3.12065e-07
1.00432e-05
2.36659e-07
1.00515e-05
2.62471e-07
1.00431e-05
3.99484e-07
1.00457e-05
3.86555e-07
1.00515e-05
3.12177e-07
1.00645e-05
3.82592e-07
1.00702e-05
4.42172e-07
1.00637e-05
3.16044e-07
1.00714e-05
2.55675e-07
1.00846e-05
3.04537e-07
1.00807e-05
2.88455e-07
1.00703e-05
2.10556e-07
1.0071e-05
1.7448e-07
1.00793e-05
1.92976e-07
1.00797e-05
1.99454e-07
1.00749e-05
1.72836e-07
1.45621e-07
1.00738e-05
1.04949e-05
1.70407e-08
1.05156e-05
3.2854e-07
1.05045e-05
3.23145e-07
1.05173e-05
2.23891e-07
1.05304e-05
2.49348e-07
1.05237e-05
4.0615e-07
1.05226e-05
3.87622e-07
1.05284e-05
3.06427e-07
1.05429e-05
3.68102e-07
1.05495e-05
4.35519e-07
1.05426e-05
3.22975e-07
1.05474e-05
2.50892e-07
1.05619e-05
2.90068e-07
1.05614e-05
2.88913e-07
1.05518e-05
2.20129e-07
1.05501e-05
1.76192e-07
1.05581e-05
1.84992e-07
1.05616e-05
1.95929e-07
1.05582e-05
1.76294e-07
1.47577e-07
1.05562e-05
1.09938e-05
1.33035e-08
1.10179e-05
3.04379e-07
1.1008e-05
3.33036e-07
1.10143e-05
2.17634e-07
1.10312e-05
2.32459e-07
1.10283e-05
4.09014e-07
1.10235e-05
3.92398e-07
1.10274e-05
3.02523e-07
1.10436e-05
3.51932e-07
1.10522e-05
4.26964e-07
1.10454e-05
3.29779e-07
1.1047e-05
2.49219e-07
1.10616e-05
2.75502e-07
1.10647e-05
2.85814e-07
1.10567e-05
2.28149e-07
1.1053e-05
1.79854e-07
1.10596e-05
1.78388e-07
1.10655e-05
1.90002e-07
1.10641e-05
1.77768e-07
1.49759e-07
1.10619e-05
1.15168e-05
1.18446e-08
1.15432e-05
2.78026e-07
1.15361e-05
3.40125e-07
1.15359e-05
2.17812e-07
1.15548e-05
2.13531e-07
1.15573e-05
4.0657e-07
1.15501e-05
3.99615e-07
1.15505e-05
3.02089e-07
1.15676e-05
3.34874e-07
1.15787e-05
4.15795e-07
1.15729e-05
3.35634e-07
1.15717e-05
2.50366e-07
1.15852e-05
2.62047e-07
1.15915e-05
2.79488e-07
1.15857e-05
2.3398e-07
1.15809e-05
1.84644e-07
1.15854e-05
1.73852e-07
1.15927e-05
1.82714e-07
1.15935e-05
1.76946e-07
1.5156e-07
1.15917e-05
1.20654e-05
1.2311e-08
1.20925e-05
2.5086e-07
1.20896e-05
3.4303e-07
1.20838e-05
2.23633e-07
1.21025e-05
1.94823e-07
1.2111e-05
3.98037e-07
1.21032e-05
4.07418e-07
1.20997e-05
3.05667e-07
1.2116e-05
3.18577e-07
1.213e-05
4.01746e-07
1.2126e-05
3.39646e-07
1.21226e-05
2.53708e-07
1.21341e-05
2.50607e-07
1.21429e-05
2.70686e-07
1.21397e-05
2.37204e-07
1.21347e-05
1.8959e-07
1.2137e-05
1.71566e-07
1.21445e-05
1.75222e-07
1.21476e-05
1.73821e-07
1.52542e-07
1.21466e-05
1.26407e-05
1.42292e-08
1.26673e-05
2.24195e-07
1.26695e-05
3.40821e-07
1.26595e-05
2.33692e-07
1.26756e-05
1.78723e-07
1.26902e-05
3.83417e-07
1.26838e-05
4.13875e-07
1.26767e-05
3.12748e-07
1.26904e-05
3.04808e-07
1.2707e-05
3.8518e-07
1.27056e-05
3.41069e-07
1.27009e-05
2.58359e-07
1.27098e-05
2.41757e-07
1.27201e-05
2.60333e-07
1.27197e-05
2.37656e-07
1.27154e-05
1.93888e-07
1.27159e-05
1.71068e-07
1.27225e-05
1.68646e-07
1.27274e-05
1.68841e-07
1.52283e-07
1.27277e-05
1.32441e-05
1.70604e-08
1.32692e-05
1.99147e-07
1.32769e-05
3.33118e-07
1.32644e-05
2.46146e-07
1.32757e-05
1.67411e-07
1.32954e-05
3.63741e-07
1.32924e-05
4.16874e-07
1.32826e-05
3.2253e-07
1.32928e-05
2.94632e-07
1.3311e-05
3.66966e-07
1.33126e-05
3.39469e-07
1.33077e-05
2.63264e-07
1.33138e-05
2.35681e-07
1.33247e-05
2.49405e-07
1.33269e-05
2.35499e-07
1.33238e-05
1.9694e-07
1.33233e-05
1.71586e-07
1.33283e-05
1.63585e-07
1.33343e-05
1.62904e-07
1.5045e-07
1.33361e-05
1.3877e-05
2.02713e-08
1.38996e-05
1.76471e-07
1.39126e-05
3.20128e-07
1.38995e-05
2.59259e-07
1.39047e-05
1.62243e-07
1.39276e-05
3.40765e-07
1.39296e-05
4.1496e-07
1.39185e-05
3.33614e-07
1.39248e-05
2.8831e-07
1.39434e-05
3.48374e-07
1.39482e-05
3.34712e-07
1.39439e-05
2.67506e-07
1.39475e-05
2.32057e-07
1.3958e-05
2.38896e-07
1.39625e-05
2.31078e-07
1.3961e-05
1.98395e-07
1.39603e-05
1.72331e-07
1.39639e-05
1.59988e-07
1.39697e-05
1.57064e-07
1.47057e-07
1.39731e-05
1.45406e-05
2.33692e-08
1.456e-05
1.56999e-07
1.45777e-05
3.02458e-07
1.45656e-05
2.71402e-07
1.45643e-05
1.6353e-07
1.45882e-05
3.16839e-07
1.45956e-05
4.07609e-07
1.45853e-05
3.43863e-07
1.45881e-05
2.85552e-07
1.46058e-05
3.30637e-07
1.46135e-05
3.26991e-07
1.46107e-05
2.70378e-07
1.46125e-05
2.30195e-07
1.46218e-05
2.29563e-07
1.4628e-05
2.24921e-07
1.46282e-05
1.98156e-07
1.46279e-05
1.72723e-07
1.46304e-05
1.57395e-07
1.46355e-05
1.51979e-07
1.42652e-07
1.46399e-05
1.52363e-05
2.59859e-08
1.52523e-05
1.40925e-07
1.52734e-05
2.81411e-07
1.5263e-05
2.81774e-07
1.52559e-05
1.70678e-07
1.5278e-05
2.9469e-07
1.52911e-05
3.94527e-07
1.52839e-05
3.51023e-07
1.52841e-05
2.8543e-07
1.53e-05
3.14682e-07
1.53101e-05
3.1694e-07
1.53091e-05
2.71322e-07
1.53099e-05
2.29426e-07
1.53178e-05
2.21618e-07
1.53249e-05
2.1783e-07
1.53269e-05
1.96159e-07
1.53272e-05
1.72484e-07
1.53293e-05
1.5522e-07
1.53336e-05
1.47729e-07
1.38014e-07
1.53382e-05
1.59654e-05
2.79611e-08
1.59788e-05
1.27447e-07
1.60001e-05
2.60179e-07
1.59921e-05
2.89703e-07
1.59812e-05
1.81647e-07
1.5999e-05
2.76859e-07
1.60178e-05
3.75765e-07
1.60152e-05
3.53592e-07
1.60143e-05
2.8637e-07
1.60279e-05
3.01071e-07
1.60394e-05
3.05447e-07
1.60407e-05
2.69985e-07
1.60411e-05
2.29041e-07
1.60476e-05
2.15104e-07
1.60551e-05
2.10368e-07
1.60585e-05
1.92672e-07
1.60596e-05
1.71398e-07
1.60617e-05
1.53126e-07
1.60654e-05
1.44021e-07
1.33655e-07
1.60698e-05
1.67292e-05
2.93623e-08
1.67344e-05
1.22249e-07
1.67563e-05
2.38253e-07
1.67548e-05
2.91259e-07
1.6743e-05
1.93444e-07
1.67562e-05
2.63664e-07
1.6778e-05
3.53973e-07
1.67805e-05
3.51089e-07
1.67797e-05
2.87093e-07
1.67911e-05
2.89717e-07
1.68032e-05
2.93346e-07
1.68067e-05
2.66493e-07
1.68074e-05
2.28288e-07
1.68127e-05
2.09876e-07
1.682e-05
2.02996e-07
1.68247e-05
1.87981e-07
1.68268e-05
1.6937e-07
1.6829e-05
1.5085e-07
1.68325e-05
1.40538e-07
1.29648e-07
1.68365e-05
1.75296e-05
3.01368e-08
1.75342e-05
1.17616e-07
1.7553e-05
2.19503e-07
1.75544e-05
2.89835e-07
1.75433e-05
2.04553e-07
1.75524e-05
2.54514e-07
1.75744e-05
3.31979e-07
1.75815e-05
3.44055e-07
1.75817e-05
2.86817e-07
1.75913e-05
2.80106e-07
1.76034e-05
2.81262e-07
1.76087e-05
2.61183e-07
1.76103e-05
2.26681e-07
1.76148e-05
2.05445e-07
1.76217e-05
1.96124e-07
1.76272e-05
1.82458e-07
1.76302e-05
1.6633e-07
1.76327e-05
1.48368e-07
1.76362e-05
1.37082e-07
1.2582e-07
1.764e-05
1.83681e-05
3.03765e-08
1.83697e-05
1.15987e-07
1.83873e-05
2.01968e-07
1.83924e-05
2.84702e-07
1.83831e-05
2.13808e-07
1.83889e-05
2.48764e-07
1.84096e-05
3.11301e-07
1.84199e-05
3.33731e-07
1.84218e-05
2.84939e-07
1.84301e-05
2.71802e-07
1.84418e-05
2.69507e-07
1.84487e-05
2.54371e-07
1.84513e-05
2.24058e-07
1.84554e-05
2.01307e-07
1.84617e-05
1.89796e-07
1.84676e-05
1.76573e-07
1.84717e-05
1.62305e-07
1.84746e-05
1.45431e-07
1.84779e-05
1.33764e-07
1.2188e-07
1.84818e-05
1.92466e-05
3.01229e-08
1.92472e-05
1.15458e-07
1.92624e-05
1.86714e-07
1.92702e-05
2.76929e-07
1.92633e-05
2.20668e-07
1.92669e-05
2.45245e-07
1.92854e-05
2.92756e-07
1.92979e-05
3.21266e-07
1.93016e-05
2.81217e-07
1.93091e-05
2.64313e-07
1.93203e-05
2.58267e-07
1.93283e-05
2.46343e-07
1.9332e-05
2.20357e-07
1.93361e-05
1.9723e-07
1.93422e-05
1.83761e-07
1.93481e-05
1.70622e-07
1.93528e-05
1.5757e-07
1.93565e-05
1.41768e-07
1.93598e-05
1.30441e-07
1.17922e-07
1.93638e-05
2.01671e-05