/*--------------------------------*- C++ -*----------------------------------*\
| =========                 |                                                 |
| \\      /  F ield         | OpenFOAM: The Open Source CFD Toolbox           |
|  \\    /   O peration     | Version:  2506                                  |
|   \\  /    A nd           | Website:  www.openfoam.com                      |
|    \\/     M anipulation  |                                                 |
\*---------------------------------------------------------------------------*/
FoamFile
{
    version     2.0;
    format      ascii;
    arch        "LSB;label=32;scalar=64";
    class       volVectorField;
    location    "6.25";
    object      U;
}
// * * * * * * * * * * * * * * * * * * * * * * * * * * * * * * * * * * * * * //

dimensions      [0 1 -1 0 0 0 0];

internalField   nonuniform List<vector> 
9600
(
(0.889852 0.00659107 0)
(1.14656 -0.00880186 0)
(0.720178 0.0191541 0)
(1.35474 0.0134359 0)
(0.660548 -0.0144637 0)
(1.12097 0.00367967 0)
(0.900095 0.0178259 0)
(1.15815 0.00273931 0)
(0.753002 0.0174887 0)
(1.23644 0.00373445 0)
(0.679454 0.00723676 0)
(1.22926 0.0223556 0)
(0.720459 0.00353969 0)
(1.1438 0.0110292 0)
(0.80726 -0.00344361 0)
(1.13487 0.0038965 0)
(0.840552 -0.000942783 0)
(1.12451 0.00358785 0)
(0.848636 0.00407278 0)
(1.11954 0.00593225 0)
(0.893245 0.00627201 0)
(1.14064 -0.00732961 0)
(0.72276 0.0176748 0)
(1.34494 0.0144045 0)
(0.681862 -0.01247 0)
(1.11784 0.00182086 0)
(0.905213 0.0169358 0)
(1.15449 0.00498731 0)
(0.761782 0.0163162 0)
(1.22413 0.00560243 0)
(0.697834 0.00709485 0)
(1.20748 0.0221746 0)
(0.772869 0.0048077 0)
(1.10583 0.00987798 0)
(0.868264 -0.00353222 0)
(1.08512 0.00325819 0)
(0.917893 -0.000716446 0)
(1.05165 0.00276228 0)
(0.953666 0.00519392 0)
(1.00826 0.00464846 0)
(0.900569 0.005984 0)
(1.13063 -0.00591672 0)
(0.731001 0.0155666 0)
(1.32436 0.0151317 0)
(0.72379 -0.0109145 0)
(1.10551 -0.000294491 0)
(0.919146 0.0163085 0)
(1.14366 0.00688182 0)
(0.788318 0.0149577 0)
(1.19642 0.00685515 0)
(0.747023 0.00669345 0)
(1.15496 0.0214388 0)
(0.853608 0.00635919 0)
(1.04664 0.00816853 0)
(0.93073 -0.00318041 0)
(1.02926 0.00210695 0)
(0.969851 7.96176e-05 0)
(1.00621 0.00217135 0)
(0.987329 0.00576361 0)
(0.990426 0.00521695 0)
(0.911554 0.00573422 0)
(1.11746 -0.00457155 0)
(0.747166 0.0137282 0)
(1.29099 0.0153895 0)
(0.785112 -0.0093078 0)
(1.08001 -0.00189257 0)
(0.941147 0.0157994 0)
(1.12339 0.00843377 0)
(0.833064 0.0140605 0)
(1.15387 0.0075868 0)
(0.817869 0.0070096 0)
(1.08705 0.0199703 0)
(0.923701 0.0079527 0)
(1.0005 0.00699369 0)
(0.962502 -0.0029516 0)
(0.997731 0.00126216 0)
(0.983544 0.000480463 0)
(0.991431 0.00187152 0)
(0.988139 0.00596434 0)
(0.988699 0.00587165 0)
(0.925173 0.0054899 0)
(1.10178 -0.00324721 0)
(0.773208 0.0122038 0)
(1.2446 0.0152157 0)
(0.856281 -0.00757484 0)
(1.04432 -0.00311764 0)
(0.964753 0.0151682 0)
(1.09597 0.00969039 0)
(0.886221 0.0136514 0)
(1.1046 0.00790303 0)
(0.886569 0.00795132 0)
(1.02972 0.018451 0)
(0.96536 0.0091597 0)
(0.980953 0.00654035 0)
(0.972532 -0.00295489 0)
(0.985426 0.000737433 0)
(0.984408 0.000663886 0)
(0.986989 0.00171873 0)
(0.986468 0.00612385 0)
(0.986245 0.00635599 0)
(0.939854 0.00525701 0)
(1.08452 -0.00200524 0)
(0.808709 0.0109544 0)
(1.18933 0.0145604 0)
(0.923058 -0.00581319 0)
(1.0083 -0.00393206 0)
(0.981925 0.0144559 0)
(1.06736 0.0105633 0)
(0.933719 0.0136042 0)
(1.06021 0.00799124 0)
(0.935936 0.00902557 0)
(0.996558 0.017372 0)
(0.983678 0.00980064 0)
(0.979428 0.00651907 0)
(0.976672 -0.00289536 0)
(0.981391 0.000335478 0)
(0.984264 0.000713849 0)
(0.986367 0.0016357 0)
(0.986736 0.00622916 0)
(0.986242 0.00674259 0)
(0.95384 0.0050468 0)
(1.06717 -0.000934717 0)
(0.849607 0.0100485 0)
(1.13345 0.0135347 0)
(0.974235 -0.00417246 0)
(0.982365 -0.00427027 0)
(0.98855 0.0137117 0)
(1.04323 0.0110068 0)
(0.966242 0.0138021 0)
(1.02879 0.0080572 0)
(0.963684 0.00989747 0)
(0.983449 0.0167338 0)
(0.989977 0.0100063 0)
(0.984092 0.00662341 0)
(0.981362 -0.00267902 0)
(0.981206 -1.31626e-05 0)
(0.984519 0.000670098 0)
(0.987325 0.00155985 0)
(0.988094 0.0062136 0)
(0.988084 0.00709091 0)
(0.965727 0.00486562 0)
(1.0514 -8.49098e-05 0)
(0.889814 0.00951023 0)
(1.0857 0.0123507 0)
(1.00609 -0.00277752 0)
(0.970852 -0.00417152 0)
(0.986539 0.0129708 0)
(1.02593 0.0110878 0)
(0.982856 0.0141185 0)
(1.01168 0.00816547 0)
(0.976622 0.010513 0)
(0.980224 0.0163552 0)
(0.992035 0.0099758 0)
(0.989059 0.00668338 0)
(0.986701 -0.00238672 0)
(0.983524 -0.000245276 0)
(0.985423 0.000617823 0)
(0.98841 0.00143326 0)
(0.989593 0.00609583 0)
(0.990245 0.00742325 0)
(0.974887 0.00471649 0)
(1.03835 0.000525254 0)
(0.924321 0.00927212 0)
(1.0512 0.0112003 0)
(1.02125 -0.00169699 0)
(0.9709 -0.00372264 0)
(0.981414 0.0123034 0)
(1.01491 0.0109302 0)
(0.988454 0.0144287 0)
(1.00529 0.00828253 0)
(0.982643 0.0109747 0)
(0.980412 0.0160985 0)
(0.993399 0.0098176 0)
(0.993109 0.00664042 0)
(0.991817 -0.00207366 0)
(0.987317 -0.000332324 0)
(0.9874 0.000593003 0)
(0.9896 0.00130251 0)
(0.99088 0.00595074 0)
(0.992074 0.00770854 0)
(0.981498 0.00459806 0)
(1.02821 0.000919389 0)
(0.950987 0.00922937 0)
(1.03016 0.0102008 0)
(1.02518 -0.00091235 0)
(0.976469 -0.00307934 0)
(0.97816 0.0117651 0)
(1.00856 0.0106532 0)
(0.989274 0.0146605 0)
(1.00463 0.00835958 0)
(0.986679 0.0113785 0)
(0.982098 0.0159025 0)
(0.995396 0.00957545 0)
(0.996635 0.00651083 0)
(0.996423 -0.00176611 0)
(0.991706 -0.000332651 0)
(0.990387 0.000605081 0)
(0.991377 0.00126534 0)
(0.992221 0.00582214 0)
(0.993565 0.00789125 0)
(0.9862 0.00450624 0)
(1.02044 0.00115142 0)
(0.970221 0.00928211 0)
(1.01942 0.00940053 0)
(1.02322 -0.000349162 0)
(0.982674 -0.00238394 0)
(0.978773 0.0113632 0)
(1.00545 0.010343 0)
(0.989731 0.014803 0)
(1.00599 0.00837428 0)
(0.990567 0.0117559 0)
(0.985104 0.0157459 0)
(0.998303 0.00927914 0)
(1.00007 0.00634628 0)
(1.00052 -0.00149225 0)
(0.996072 -0.000281455 0)
(0.99391 0.000689259 0)
(0.993815 0.00135036 0)
(0.993917 0.00571422 0)
(0.994938 0.00797406 0)
(0.989648 0.00443784 0)
(1.0144 0.0012615 0)
(0.983612 0.00935756 0)
(1.01499 0.00879612 0)
(1.01912 7.39087e-05 0)
(0.987348 -0.00172868 0)
(0.98257 0.011062 0)
(1.00447 0.0100457 0)
(0.991533 0.0148789 0)
(1.00762 0.0083409 0)
(0.994497 0.0120918 0)
(0.989161 0.0156147 0)
(1.00182 0.00896141 0)
(1.00345 0.00618495 0)
(1.00408 -0.00126629 0)
(0.999985 -0.000192745 0)
(0.997412 0.000840714 0)
(0.996563 0.00150808 0)
(0.995951 0.00564695 0)
(0.996353 0.00803222 0)
(0.992293 0.00438981 0)
(1.00964 0.00128503 0)
(0.992771 0.0094119 0)
(1.0137 0.00835894 0)
(1.01496 0.000423833 0)
(0.990302 -0.00117405 0)
(0.987822 0.0108108 0)
(1.0047 0.0097754 0)
(0.994487 0.0149153 0)
(1.00906 0.00829333 0)
(0.998203 0.0123564 0)
(0.99365 0.015499 0)
(1.00543 0.00864609 0)
(1.00656 0.00604756 0)
(1.00702 -0.00106856 0)
(1.00316 -8.15882e-05 0)
(1.00044 0.00102091 0)
(0.999167 0.00169713 0)
(0.998058 0.00567119 0)
(0.997809 0.00812872 0)
(0.994385 0.00435848 0)
(1.00595 0.00125034 0)
(0.998862 0.00942907 0)
(1.01356 0.00804743 0)
(1.01164 0.000738481 0)
(0.992083 -0.000731638 0)
(0.993024 0.0105733 0)
(1.00534 0.00953267 0)
(0.997735 0.0149282 0)
(1.01025 0.00825963 0)
(1.00143 0.0125307 0)
(0.997916 0.0153953 0)
(1.0087 0.00834143 0)
(1.00913 0.0059555 0)
(1.00926 -0.00087047 0)
(1.00548 4.81212e-05 0)
(1.00273 0.0012205 0)
(1.00129 0.00189723 0)
(0.999936 0.00580166 0)
(0.999184 0.00826245 0)
(0.996078 0.00433876 0)
(1.00318 0.0011812 0)
(1.00267 0.00940778 0)
(1.01362 0.00782479 0)
(1.00933 0.00103774 0)
(0.993234 -0.000386292 0)
(0.997353 0.0103304 0)
(1.00587 0.00931452 0)
(1.00055 0.014923 0)
(1.01116 0.00825128 0)
(1.004 0.012614 0)
(1.00151 0.0153025 0)
(1.0114 0.00805343 0)
(1.01109 0.00591754 0)
(1.01083 -0.000657137 0)
(1.00701 0.000187409 0)
(1.00423 0.00145561 0)
(1.00277 0.00208541 0)
(1.00139 0.00599017 0)
(1.00034 0.00841834 0)
(0.99749 0.00432549 0)
(1.00115 0.00109769 0)
(1.00481 0.00934999 0)
(1.01351 0.00766413 0)
(1.00791 0.00132517 0)
(0.994105 -0.000110639 0)
(1.0006 0.0100798 0)
(1.00604 0.00911784 0)
(1.00258 0.0148979 0)
(1.01169 0.00827225 0)
(1.00586 0.0126109 0)
(1.00426 0.0152196 0)
(1.01347 0.00778603 0)
(1.01246 0.00593083 0)
(1.01185 -0.000419597 0)
(1.00792 0.000320605 0)
(1.00505 0.00173909 0)
(1.00367 0.00224668 0)
(1.0024 0.00617523 0)
(1.00122 0.00859894 0)
(0.998685 0.00431408 0)
(0.999677 0.00101517 0)
(1.00582 0.0092633 0)
(1.01318 0.00753724 0)
(1.00714 0.00159476 0)
(0.994881 0.000121777 0)
(1.00293 0.00982478 0)
(1.00586 0.00894521 0)
(1.00374 0.0148481 0)
(1.01186 0.00832172 0)
(1.0071 0.0125258 0)
(1.00621 0.0151414 0)
(1.01497 0.0075377 0)
(1.01338 0.00598468 0)
(1.01245 -0.000143348 0)
(1.00841 0.000445514 0)
(1.0054 0.0020775 0)
(1.00412 0.00239766 0)
(1.00304 0.00632514 0)
(1.00186 0.00881189 0)
(0.999661 0.00430063 0)
(0.998656 0.000945097 0)
(1.00613 0.00915343 0)
(1.01268 0.00742611 0)
(1.00681 0.00184138 0)
(0.995626 0.000332846 0)
(1.00456 0.00957026 0)
(1.00545 0.00880243 0)
(1.00419 0.0147709 0)
(1.01175 0.00839231 0)
(1.00788 0.0123663 0)
(1.00753 0.0150615 0)
(1.01599 0.00730778 0)
(1.01396 0.00606411 0)
(1.01274 0.000193007 0)
(1.00867 0.000554975 0)
(1.00546 0.00246247 0)
(1.0043 0.00256582 0)
(1.00344 0.00642111 0)
(1.00234 0.0090516 0)
(1.00038 0.00428249 0)
(0.998044 0.000893982 0)
(1.00602 0.00902399 0)
(1.01209 0.00732188 0)
(1.00679 0.00206045 0)
(0.996322 0.000539994 0)
(1.00565 0.00932122 0)
(1.00496 0.00869229 0)
(1.00414 0.0146656 0)
(1.01148 0.00847669 0)
(1.00837 0.0121423 0)
(1.00834 0.0149773 0)
(1.01658 0.00709557 0)
(1.01427 0.00615409 0)
(1.01279 0.000585122 0)
(1.00881 0.000637052 0)
(1.00537 0.00286328 0)
(1.00437 0.00276556 0)
(1.00371 0.00644072 0)
(1.00271 0.00929207 0)
(1.00085 0.00425703 0)
(0.997792 0.000865271 0)
(1.00567 0.00887982 0)
(1.01147 0.00721733 0)
(1.00699 0.00224712 0)
(0.996931 0.000758517 0)
(1.00627 0.00907981 0)
(1.00447 0.00861201 0)
(1.00382 0.0145324 0)
(1.01117 0.008572 0)
(1.00866 0.0118643 0)
(1.00875 0.0148825 0)
(1.01673 0.00690844 0)
(1.01438 0.00623688 0)
(1.01262 0.0010332 0)
(1.0089 0.000707574 0)
(1.00524 0.00325363 0)
(1.0044 0.00301554 0)
(1.00391 0.00638011 0)
(1.00303 0.00950331 0)
(1.0011 0.00422212 0)
(0.997808 0.000860881 0)
(1.00523 0.00872293 0)
(1.01088 0.00710843 0)
(1.00728 0.00240101 0)
(0.997436 0.00100074 0)
(1.00648 0.00884292 0)
(1.00406 0.0085578 0)
(1.0034 0.0143705 0)
(1.01091 0.00867264 0)
(1.0088 0.0115489 0)
(1.00884 0.0147802 0)
(1.0165 0.00674713 0)
(1.01432 0.00628862 0)
(1.0123 0.00153823 0)
(1.009 0.00078581 0)
(1.00512 0.00361202 0)
(1.00447 0.00333265 0)
(1.00409 0.00625922 0)
(1.00332 0.00966522 0)
(1.00122 0.0041765 0)
(0.997976 0.000880288 0)
(1.0048 0.00855557 0)
(1.01038 0.00699386 0)
(1.00753 0.0025225 0)
(0.997856 0.00127391 0)
(1.00643 0.00860778 0)
(1.0038 0.00852152 0)
(1.00296 0.0141824 0)
(1.01075 0.0087746 0)
(1.00885 0.0112126 0)
(1.00873 0.0146713 0)
(1.01598 0.00661782 0)
(1.01417 0.00629009 0)
(1.01188 0.00208481 0)
(1.00913 0.000880455 0)
(1.00505 0.00391819 0)
(1.00457 0.00371925 0)
(1.0043 0.00610671 0)
(1.00362 0.00976005 0)
(1.00125 0.00411902 0)
(0.998211 0.000923185 0)
(1.00443 0.00837584 0)
(1.01002 0.00687975 0)
(1.00765 0.00260835 0)
(0.998226 0.00158266 0)
(1.00625 0.00837122 0)
(1.00371 0.00849311 0)
(1.00255 0.0139755 0)
(1.01067 0.00887753 0)
(1.00885 0.0108723 0)
(1.00856 0.0145481 0)
(1.01531 0.00652647 0)
(1.01399 0.00624274 0)
(1.0114 0.00266212 0)
(1.00928 0.00100305 0)
(1.00506 0.00415788 0)
(1.00471 0.00416545 0)
(1.00454 0.00595293 0)
(1.00396 0.0097646 0)
(1.00122 0.00404958 0)
(0.99848 0.000988565 0)
(1.00414 0.00817981 0)
(1.0098 0.00677332 0)
(1.00762 0.00266114 0)
(0.998575 0.00192245 0)
(1.00606 0.00813271 0)
(1.0038 0.00846908 0)
(1.00219 0.0137521 0)
(1.01066 0.00897658 0)
(1.00885 0.0105396 0)
(1.00839 0.0144153 0)
(1.01459 0.00647306 0)
(1.01381 0.00615331 0)
(1.01092 0.00324353 0)
(1.00943 0.00116059 0)
(1.00515 0.00432261 0)
(1.00487 0.00465187 0)
(1.00483 0.00583094 0)
(1.00437 0.00965175 0)
(1.00115 0.00396794 0)
(0.998785 0.00107502 0)
(1.00388 0.00796599 0)
(1.0097 0.00667966 0)
(1.00743 0.00268522 0)
(0.998914 0.00228698 0)
(1.00589 0.00789212 0)
(1.00401 0.00844602 0)
(1.00189 0.0135197 0)
(1.01067 0.00906512 0)
(1.00886 0.010217 0)
(1.00825 0.0142774 0)
(1.01392 0.00646571 0)
(1.01364 0.00602558 0)
(1.01047 0.003814 0)
(1.00954 0.00136639 0)
(1.00532 0.0044172 0)
(1.00502 0.00515922 0)
(1.00514 0.00577929 0)
(1.00485 0.00940804 0)
(1.00102 0.00387269 0)
(0.999129 0.00118282 0)
(1.00365 0.00773212 0)
(1.00968 0.00660381 0)
(1.00716 0.00268208 0)
(0.999236 0.00266992 0)
(1.00575 0.00764992 0)
(1.0043 0.00841651 0)
(1.00165 0.0132907 0)
(1.01066 0.00913814 0)
(1.0089 0.00990908 0)
(1.00813 0.0141269 0)
(1.01331 0.00650382 0)
(1.0135 0.0058649 0)
(1.01007 0.00436657 0)
(1.00959 0.00162831 0)
(1.00556 0.00443912 0)
(1.00517 0.00565884 0)
(1.00545 0.00583508 0)
(1.00537 0.00904686 0)
(1.00086 0.00376445 0)
(0.999502 0.00131051 0)
(1.00343 0.00747609 0)
(1.00969 0.00654766 0)
(1.00685 0.00265553 0)
(0.999529 0.00306177 0)
(1.00564 0.00741339 0)
(1.0046 0.00837325 0)
(1.00146 0.013068 0)
(1.0106 0.00919705 0)
(1.009 0.00960856 0)
(1.008 0.0139604 0)
(1.01277 0.00658927 0)
(1.01337 0.00567819 0)
(1.00974 0.00488846 0)
(1.00959 0.00195327 0)
(1.00585 0.00439179 0)
(1.0053 0.00611347 0)
(1.00573 0.00602474 0)
(1.00591 0.00861526 0)
(1.00069 0.00364188 0)
(0.99987 0.00145837 0)
(1.00326 0.00719934 0)
(1.00968 0.00650974 0)
(1.00654 0.00261054 0)
(0.999783 0.00345597 0)
(1.00554 0.00718879 0)
(1.00489 0.00830932 0)
(1.00133 0.0128623 0)
(1.01046 0.00923905 0)
(1.00914 0.00931072 0)
(1.00785 0.0137704 0)
(1.01229 0.00671677 0)
(1.01325 0.00546995 0)
(1.00949 0.00536841 0)
(1.00952 0.00235171 0)
(1.00619 0.00429919 0)
(1.00546 0.00648304 0)
(1.00595 0.00634018 0)
(1.00645 0.00817763 0)
(1.00052 0.00350536 0)
(1.0002 0.0016236 0)
(1.00314 0.00690553 0)
(1.00963 0.00648969 0)
(1.00625 0.00254759 0)
(0.999996 0.00384579 0)
(1.00546 0.00698474 0)
(1.00515 0.00820726 0)
(1.00125 0.0126839 0)
(1.01026 0.00927058 0)
(1.00932 0.00901948 0)
(1.00769 0.0135601 0)
(1.01185 0.00688123 0)
(1.01316 0.00524567 0)
(1.00931 0.00579105 0)
(1.00941 0.00282267 0)
(1.00656 0.00418745 0)
(1.00565 0.00673855 0)
(1.00612 0.00675274 0)
(1.00694 0.00782252 0)
(1.00039 0.00335569 0)
(1.00046 0.00180495 0)
(1.00309 0.00659495 0)
(1.00953 0.00648474 0)
(1.006 0.00247547 0)
(1.00017 0.00422773 0)
(1.00539 0.00680537 0)
(1.00538 0.00806769 0)
(1.00121 0.012518 0)
(1.01001 0.00930473 0)
(1.00954 0.00872455 0)
(1.00754 0.0133389 0)
(1.01143 0.00709164 0)
(1.0131 0.00502279 0)
(1.00919 0.00614794 0)
(1.00926 0.00336192 0)
(1.00692 0.00408561 0)
(1.0059 0.00685959 0)
(1.00624 0.00721179 0)
(1.00735 0.00763952 0)
(1.0003 0.00319255 0)
(1.00063 0.00200224 0)
(1.0031 0.00626917 0)
(1.00938 0.00649096 0)
(1.00579 0.00240366 0)
(1.00031 0.00458551 0)
(1.00534 0.00666462 0)
(1.00559 0.00789097 0)
(1.0012 0.0123515 0)
(1.00973 0.0093474 0)
(1.00976 0.0084212 0)
(1.0074 0.013099 0)
(1.011 0.00735033 0)
(1.01305 0.00480946 0)
(1.00914 0.00642745 0)
(1.00907 0.00396367 0)
(1.00726 0.00403638 0)
(1.00622 0.00684903 0)
(1.00634 0.0076413 0)
(1.00766 0.00766206 0)
(1.00026 0.00301872 0)
(1.00073 0.00221003 0)
(1.00316 0.0059324 0)
(1.00921 0.00650445 0)
(1.0056 0.00232928 0)
(1.00043 0.00491638 0)
(1.0053 0.00657513 0)
(1.00579 0.00767107 0)
(1.00122 0.0121879 0)
(1.00943 0.00939861 0)
(1.00998 0.00811074 0)
(1.0073 0.0128266 0)
(1.01054 0.00765235 0)
(1.01302 0.00462035 0)
(1.00915 0.00660904 0)
(1.00887 0.00461342 0)
(1.00754 0.00407259 0)
(1.00661 0.00673334 0)
(1.00646 0.00796964 0)
(1.00785 0.00786345 0)
(1.00026 0.0028348 0)
(1.00076 0.0024261 0)
(1.00323 0.00559197 0)
(1.00901 0.00651134 0)
(1.00544 0.00226873 0)
(1.00053 0.00520788 0)
(1.00527 0.00653918 0)
(1.00598 0.00742862 0)
(1.00126 0.0120101 0)
(1.00912 0.009468 0)
(1.01019 0.00779673 0)
(1.00723 0.0125095 0)
(1.01005 0.0079927 0)
(1.01298 0.0044894 0)
(1.00923 0.00667883 0)
(1.00865 0.00527981 0)
(1.00774 0.00421109 0)
(1.00703 0.00655299 0)
(1.00663 0.00816101 0)
(1.00796 0.00816194 0)
(1.00028 0.00264171 0)
(1.00075 0.00264926 0)
(1.00331 0.00525103 0)
(1.0088 0.00650773 0)
(1.00529 0.00223321 0)
(1.00062 0.00543258 0)
(1.00523 0.0065556 0)
(1.00617 0.00717064 0)
(1.00133 0.0118087 0)
(1.00881 0.00956409 0)
(1.01037 0.00749593 0)
(1.00721 0.0121421 0)
(1.00953 0.00835384 0)
(1.01292 0.00443277 0)
(1.00936 0.00663547 0)
(1.00843 0.00592717 0)
(1.00786 0.00446119 0)
(1.00747 0.00635503 0)
(1.00686 0.00822109 0)
(1.00802 0.0084512 0)
(1.00031 0.0024393 0)
(1.00072 0.00288076 0)
(1.00337 0.00491204 0)
(1.00859 0.00648446 0)
(1.00515 0.00223238 0)
(1.00071 0.00559278 0)
(1.00519 0.00661486 0)
(1.00636 0.00690934 0)
(1.00142 0.0115805 0)
(1.00849 0.00967811 0)
(1.01051 0.00722873 0)
(1.00724 0.0117225 0)
(1.00898 0.0087191 0)
(1.0128 0.00446984 0)
(1.00956 0.00650091 0)
(1.00824 0.00652341 0)
(1.00789 0.00481521 0)
(1.0079 0.00617014 0)
(1.00715 0.00818674 0)
(1.00808 0.00866491 0)
(1.00035 0.00223367 0)
(1.00067 0.0031053 0)
(1.00342 0.00458844 0)
(1.00837 0.0064284 0)
(1.00501 0.00228183 0)
(1.0008 0.00568903 0)
(1.00514 0.00670613 0)
(1.00653 0.00666479 0)
(1.00154 0.0112998 0)
(1.00816 0.00980767 0)
(1.01063 0.00701563 0)
(1.00732 0.0112534 0)
(1.00844 0.00907064 0)
(1.01263 0.00461315 0)
(1.0098 0.00629744 0)
(1.0081 0.00702879 0)
(1.00783 0.00526071 0)
(1.0083 0.00601276 0)
(1.00751 0.0080878 0)
(1.00816 0.0088074 0)
(1.00039 0.00202133 0)
(1.00061 0.00332955 0)
(1.00344 0.00428788 0)
(1.00814 0.00631837 0)
(1.00487 0.00238983 0)
(1.00088 0.00571886 0)
(1.00508 0.00681336 0)
(1.00669 0.00645061 0)
(1.00168 0.0109746 0)
(1.00783 0.0099302 0)
(1.0107 0.00685254 0)
(1.00744 0.0107524 0)
(1.00791 0.00937736 0)
(1.01238 0.00485195 0)
(1.01008 0.0060506 0)
(1.00802 0.0074167 0)
(1.00769 0.00579748 0)
(1.00863 0.00591335 0)
(1.00792 0.00791342 0)
(1.00828 0.00890187 0)
(1.00042 0.00180678 0)
(1.00054 0.00354344 0)
(1.00343 0.00401942 0)
(1.00792 0.00614663 0)
(1.00472 0.00255697 0)
(1.00097 0.00570583 0)
(1.005 0.0069203 0)
(1.00683 0.00627754 0)
(1.00184 0.0106214 0)
(1.0075 0.0100334 0)
(1.01072 0.00673785 0)
(1.0076 0.0102346 0)
(1.00741 0.0096196 0)
(1.01207 0.00518207 0)
(1.01038 0.00580144 0)
(1.00804 0.00765927 0)
(1.0075 0.0063941 0)
(1.00888 0.00592118 0)
(1.00838 0.00765496 0)
(1.00846 0.0089347 0)
(1.00046 0.00159466 0)
(1.00046 0.00373506 0)
(1.0034 0.00379285 0)
(1.0077 0.00591389 0)
(1.00457 0.00277182 0)
(1.00105 0.00566677 0)
(1.00491 0.00700526 0)
(1.00695 0.00616362 0)
(1.00202 0.010235 0)
(1.00717 0.010109 0)
(1.01071 0.006687 0)
(1.0078 0.00970958 0)
(1.00696 0.00979197 0)
(1.01168 0.00559089 0)
(1.01068 0.00558686 0)
(1.00816 0.00774142 0)
(1.00728 0.00698541 0)
(1.00901 0.00607128 0)
(1.00885 0.00735183 0)
(1.00872 0.00885061 0)
(1.00048 0.00138309 0)
(1.00038 0.00390894 0)
(1.00333 0.00360883 0)
(1.00749 0.00562181 0)
(1.00442 0.00301412 0)
(1.00112 0.0056169 0)
(1.00482 0.0070442 0)
(1.00704 0.00610225 0)
(1.00222 0.00984403 0)
(1.00684 0.0101455 0)
(1.01064 0.00668975 0)
(1.00802 0.00919099 0)
(1.00658 0.0098899 0)
(1.01124 0.00604921 0)
(1.01094 0.00543373 0)
(1.00838 0.00768467 0)
(1.00708 0.00751695 0)
(1.00902 0.00635901 0)
(1.00929 0.00708677 0)
(1.00908 0.00862259 0)
(1.00051 0.00117951 0)
(1.00029 0.0040499 0)
(1.00324 0.00347629 0)
(1.00728 0.00527923 0)
(1.00426 0.00325967 0)
(1.00117 0.00558311 0)
(1.00472 0.00703951 0)
(1.0071 0.00607068 0)
(1.00243 0.00946322 0)
(1.00653 0.0101315 0)
(1.01052 0.00672944 0)
(1.00827 0.00870239 0)
(1.00627 0.00990245 0)
(1.01074 0.00652344 0)
(1.01114 0.0053639 0)
(1.00869 0.00752571 0)
(1.00694 0.0079538 0)
(1.00891 0.00673872 0)
(1.00964 0.00692374 0)
(1.00951 0.00829002 0)
(1.00052 0.000984293 0)
(1.00019 0.00415396 0)
(1.00312 0.00339996 0)
(1.00708 0.00489761 0)
(1.00411 0.0034915 0)
(1.00122 0.00557892 0)
(1.00461 0.00697616 0)
(1.00714 0.00605468 0)
(1.00265 0.00911014 0)
(1.00624 0.0100721 0)
(1.01036 0.0067892 0)
(1.00853 0.00825345 0)
(1.00605 0.00983621 0)
(1.0102 0.00700103 0)
(1.01127 0.00539431 0)
(1.00908 0.00728716 0)
(1.00687 0.00826894 0)
(1.00872 0.00716399 0)
(1.00987 0.00688356 0)
(1.00998 0.00792823 0)
(1.00053 0.00080272 0)
(1.0001 0.00421534 0)
(1.00296 0.00337068 0)
(1.00688 0.00450349 0)
(1.00398 0.00368322 0)
(1.00123 0.00562212 0)
(1.00449 0.00686119 0)
(1.00716 0.00603704 0)
(1.00287 0.00879775 0)
(1.00596 0.00998196 0)
(1.01015 0.00685461 0)
(1.00879 0.00784564 0)
(1.00591 0.00971455 0)
(1.00965 0.00746627 0)
(1.01129 0.00552502 0)
(1.00951 0.00699233 0)
(1.00692 0.00844077 0)
(1.00847 0.00760503 0)
(1.00997 0.00695774 0)
(1.01042 0.00760253 0)
(1.00054 0.000636271 0)
(1 0.00423002 0)
(1.00276 0.00338986 0)
(1.00668 0.00411073 0)
(1.00386 0.00382253 0)
(1.00123 0.00571247 0)
(1.00435 0.00673133 0)
(1.00716 0.00600283 0)
(1.00309 0.00851477 0)
(1.00569 0.00988834 0)
(1.0099 0.00692412 0)
(1.00903 0.00746347 0)
(1.00587 0.00953967 0)
(1.00911 0.00789224 0)
(1.01119 0.00574818 0)
(1.00995 0.00669074 0)
(1.00708 0.00845281 0)
(1.00822 0.00802365 0)
(1.00993 0.00712924 0)
(1.01079 0.00735417 0)
(1.00054 0.000489191 0)
(0.99991 0.00418913 0)
(1.00254 0.0034528 0)
(1.00647 0.0037439 0)
(1.00376 0.00389145 0)
(1.0012 0.00583883 0)
(1.0042 0.00659559 0)
(1.00715 0.00593882 0)
(1.00332 0.00826568 0)
(1.00544 0.00980224 0)
(1.0096 0.00701147 0)
(1.00926 0.00710575 0)
(1.00593 0.00931409 0)
(1.00859 0.0082628 0)
(1.01098 0.00604494 0)
(1.01036 0.00642927 0)
(1.00737 0.0082988 0)
(1.00799 0.00835764 0)
(1.00976 0.00737969 0)
(1.01103 0.00721008 0)
(1.00053 0.000365959 0)
(0.999828 0.00408924 0)
(1.00228 0.00355258 0)
(1.00625 0.00341461 0)
(1.0037 0.00388131 0)
(1.00116 0.00598562 0)
(1.00403 0.00648783 0)
(1.00713 0.0058267 0)
(1.00356 0.00801992 0)
(1.0052 0.00971585 0)
(1.00925 0.00713558 0)
(1.00946 0.00679499 0)
(1.00607 0.00902366 0)
(1.00813 0.00855428 0)
(1.01067 0.00639388 0)
(1.01069 0.00625423 0)
(1.00777 0.00802049 0)
(1.00785 0.00855523 0)
(1.00949 0.00767412 0)
(1.01113 0.00717277 0)
(1.00052 0.000265539 0)
(0.999759 0.003933 0)
(1.002 0.0036797 0)
(1.00602 0.00313716 0)
(1.00366 0.00379306 0)
(1.00111 0.00613408 0)
(1.00382 0.00642925 0)
(1.0071 0.00568219 0)
(1.00381 0.00775607 0)
(1.00499 0.0096325 0)
(1.00885 0.00729371 0)
(1.00961 0.00654419 0)
(1.00629 0.00866109 0)
(1.00774 0.00874235 0)
(1.01027 0.00676495 0)
(1.01092 0.00618188 0)
(1.00823 0.00767325 0)
(1.00783 0.0085894 0)
(1.00918 0.00795726 0)
(1.01108 0.0072327 0)
(1.00051 0.000191133 0)
(0.999707 0.00372282 0)
(1.00171 0.00381649 0)
(1.00576 0.00293558 0)
(1.00366 0.00361157 0)
(1.00107 0.00626408 0)
(1.00357 0.00643998 0)
(1.00704 0.00554934 0)
(1.00409 0.00745525 0)
(1.00481 0.00952574 0)
(1.00841 0.00748317 0)
(1.00969 0.0063799 0)
(1.00658 0.00825046 0)
(1.00744 0.00881445 0)
(1.00982 0.00712252 0)
(1.01101 0.00620745 0)
(1.00871 0.00731596 0)
(1.00794 0.00847096 0)
(1.00889 0.00817536 0)
(1.0109 0.00736295 0)
(1.00048 0.000144198 0)
(0.999675 0.0034623 0)
(1.00141 0.00394662 0)
(1.00547 0.00282314 0)
(1.00368 0.00336457 0)
(1.00105 0.00633699 0)
(1.0033 0.0065288 0)
(1.00694 0.00545708 0)
(1.00437 0.00710773 0)
(1.00469 0.00936324 0)
(1.00794 0.00768254 0)
(1.00968 0.00631169 0)
(1.0069 0.00781545 0)
(1.00725 0.0087595 0)
(1.00935 0.00743744 0)
(1.01097 0.00632325 0)
(1.00915 0.00700386 0)
(1.00817 0.00823244 0)
(1.00865 0.00829223 0)
(1.01063 0.00751957 0)
(1.00046 0.000119491 0)
(0.999667 0.00317197 0)
(1.00112 0.00405245 0)
(1.00515 0.00279466 0)
(1.00372 0.00309675 0)
(1.00107 0.00632545 0)
(1.00301 0.00666781 0)
(1.00678 0.00543179 0)
(1.00467 0.00673759 0)
(1.00462 0.00913245 0)
(1.00746 0.00785637 0)
(1.00958 0.00632934 0)
(1.00722 0.00740434 0)
(1.00717 0.00858774 0)
(1.0089 0.00767859 0)
(1.0108 0.00650461 0)
(1.00952 0.00677245 0)
(1.0085 0.00790913 0)
(1.00852 0.00829223 0)
(1.01033 0.00765349 0)
(1.00042 0.000117933 0)
(0.999682 0.00286676 0)
(1.00085 0.00411211 0)
(1.00479 0.00285173 0)
(1.00378 0.00282287 0)
(1.00114 0.00622288 0)
(1.00271 0.00681844 0)
(1.00657 0.00548312 0)
(1.00495 0.00637959 0)
(1.00463 0.00882829 0)
(1.007 0.00798593 0)
(1.00939 0.00641558 0)
(1.00752 0.00705819 0)
(1.00719 0.00833326 0)
(1.0085 0.00782435 0)
(1.01055 0.00671285 0)
(1.00978 0.00664833 0)
(1.00887 0.00755392 0)
(1.00849 0.00817911 0)
(1.01002 0.00773907 0)
(1.00039 0.000133755 0)
(0.999718 0.00256388 0)
(1.00062 0.00410924 0)
(1.0044 0.00297982 0)
(1.00383 0.00257453 0)
(1.00127 0.0060104 0)
(1.00244 0.00694704 0)
(1.0063 0.0056183 0)
(1.00519 0.00607881 0)
(1.0047 0.00845662 0)
(1.00658 0.00804684 0)
(1.00912 0.00654239 0)
(1.00776 0.00678171 0)
(1.00729 0.00802488 0)
(1.00818 0.00787338 0)
(1.01023 0.00689965 0)
(1.0099 0.00662175 0)
(1.00923 0.00722464 0)
(1.00859 0.00795848 0)
(1.00976 0.00776237 0)
(1.00035 0.000158349 0)
(0.999771 0.00228071 0)
(1.00042 0.00404149 0)
(1.004 0.00314137 0)
(1.00386 0.00238791 0)
(1.00145 0.00570329 0)
(1.00221 0.00701796 0)
(1.00597 0.00581599 0)
(1.00539 0.00585836 0)
(1.00483 0.00804946 0)
(1.00623 0.00802495 0)
(1.0088 0.00668409 0)
(1.00793 0.0065878 0)
(1.00744 0.00769089 0)
(1.00795 0.00783795 0)
(1.0099 0.00703905 0)
(1.00991 0.00664746 0)
(1.00953 0.00696437 0)
(1.00877 0.00765588 0)
(1.00957 0.00769926 0)
(1.00032 0.000190173 0)
(0.999837 0.0020208 0)
(1.00027 0.00390821 0)
(1.00358 0.00331626 0)
(1.00386 0.002281 0)
(1.00168 0.00534458 0)
(1.00204 0.00700375 0)
(1.00562 0.00603529 0)
(1.00551 0.00572515 0)
(1.00499 0.0076404 0)
(1.00595 0.00792467 0)
(1.00844 0.00680585 0)
(1.00802 0.00646983 0)
(1.00762 0.00735856 0)
(1.0078 0.00772114 0)
(1.00958 0.00713122 0)
(1.00983 0.00669496 0)
(1.00974 0.00679505 0)
(1.00899 0.00734166 0)
(1.00949 0.00754 0)
(1.00028 0.000224883 0)
(0.99991 0.00178713 0)
(1.00017 0.00371477 0)
(1.00317 0.00348793 0)
(1.00382 0.00226629 0)
(1.00194 0.00496891 0)
(1.00195 0.00689201 0)
(1.00525 0.00623802 0)
(1.00556 0.00568059 0)
(1.00515 0.00726135 0)
(1.00574 0.00776143 0)
(1.00807 0.00688938 0)
(1.00802 0.00640028 0)
(1.0078 0.00705295 0)
(1.00774 0.00752905 0)
(1.0093 0.00715878 0)
(1.00968 0.00673671 0)
(1.00986 0.00668475 0)
(1.0092 0.0070676 0)
(1.00951 0.00729224 0)
(1.00024 0.00025346 0)
(0.999985 0.00159915 0)
(1.00012 0.00346396 0)
(1.00279 0.00363253 0)
(1.00373 0.00235004 0)
(1.0022 0.00461313 0)
(1.00194 0.00667658 0)
(1.0049 0.00638724 0)
(1.00554 0.00568692 0)
(1.00531 0.00693028 0)
(1.00559 0.00755141 0)
(1.00771 0.00693485 0)
(1.00796 0.00636741 0)
(1.00796 0.0067926 0)
(1.00774 0.00730197 0)
(1.00906 0.00712017 0)
(1.00951 0.00676569 0)
(1.00989 0.00660979 0)
(1.00936 0.0068626 0)
(1.00958 0.00702371 0)
(1.00021 0.000277939 0)
(1.00005 0.00145201 0)
(1.00011 0.00318928 0)
(1.00244 0.00373254 0)
(1.00361 0.00250611 0)
(1.00246 0.0043234 0)
(1.002 0.00638288 0)
(1.00458 0.00645816 0)
(1.00547 0.00570995 0)
(1.00545 0.00663997 0)
(1.00551 0.00730218 0)
(1.00739 0.00692423 0)
(1.00783 0.006353 0)
(1.00807 0.00656617 0)
(1.00779 0.0070517 0)
(1.00889 0.00701369 0)
(1.00932 0.00675447 0)
(1.00986 0.00654092 0)
(1.00945 0.00669728 0)
(1.00965 0.0067841 0)
(1.00018 0.000294554 0)
(1.00011 0.00135434 0)
(1.00013 0.00293087 0)
(1.00215 0.00377863 0)
(1.00346 0.00267943 0)
(1.00268 0.00411198 0)
(1.00212 0.00604405 0)
(1.0043 0.00642319 0)
(1.00534 0.00571834 0)
(1.00555 0.00638097 0)
(1.00548 0.00703408 0)
(1.0071 0.00686428 0)
(1.00766 0.00634171 0)
(1.00814 0.00638044 0)
(1.00786 0.00678799 0)
(1.00878 0.00685869 0)
(1.00915 0.00670139 0)
(1.00979 0.00647136 0)
(1.0095 0.00654818 0)
(1.00971 0.00657984 0)
(1.00016 0.000302901 0)
(1.00017 0.00130232 0)
(1.00018 0.00269351 0)
(1.00189 0.00377243 0)
(1.00328 0.00284168 0)
(1.00286 0.00396915 0)
(1.00227 0.00569087 0)
(1.00408 0.00630963 0)
(1.00519 0.00569973 0)
(1.00562 0.00615119 0)
(1.00548 0.00675726 0)
(1.00685 0.00676181 0)
(1.00746 0.00631718 0)
(1.00814 0.00623666 0)
(1.00793 0.00653061 0)
(1.00872 0.00665984 0)
(1.009 0.00660652 0)
(1.00968 0.00639584 0)
(1.00949 0.00641165 0)
(1.00974 0.00639422 0)
(1.00013 0.000308787 0)
(1.00021 0.00126988 0)
(1.00025 0.00247912 0)
(1.00169 0.00372343 0)
(1.0031 0.00298581 0)
(1.003 0.00387431 0)
(1.00243 0.00534921 0)
(1.00391 0.006149 0)
(1.00501 0.00565392 0)
(1.00564 0.00594076 0)
(1.00549 0.00647059 0)
(1.00665 0.00661427 0)
(1.00725 0.00627269 0)
(1.00807 0.00611547 0)
(1.00798 0.00629788 0)
(1.00869 0.00641795 0)
(1.00888 0.00644949 0)
(1.00956 0.00629137 0)
(1.00944 0.0062802 0)
(1.00973 0.00621498 0)
(1.00011 0.000307611 0)
(1.00023 0.00126 0)
(1.00032 0.00229014 0)
(1.00152 0.00363791 0)
(1.00291 0.00309214 0)
(1.00308 0.00380584 0)
(1.00259 0.00502923 0)
(1.00378 0.00594366 0)
(1.00483 0.00558926 0)
(1.00563 0.00575225 0)
(1.00552 0.00619072 0)
(1.0065 0.00643038 0)
(1.00703 0.00620849 0)
(1.00796 0.00601222 0)
(1.00798 0.00610437 0)
(1.00867 0.00618167 0)
(1.00881 0.00624777 0)
(1.00946 0.00614539 0)
(1.00936 0.00614614 0)
(1.00969 0.0060401 0)
(1.0001 0.000300899 0)
(1.00025 0.00126185 0)
(1.00039 0.00212537 0)
(1.00139 0.00352331 0)
(1.00273 0.00316428 0)
(1.00312 0.00376292 0)
(1.00275 0.00475164 0)
(1.0037 0.00571334 0)
(1.00465 0.00550985 0)
(1.00557 0.00559074 0)
(1.00555 0.00591663 0)
(1.00638 0.00620147 0)
(1.00683 0.00610032 0)
(1.00781 0.00590491 0)
(1.00793 0.00591936 0)
(1.00863 0.0059618 0)
(1.00874 0.0060235 0)
(1.00937 0.0059453 0)
(1.00927 0.00597985 0)
(1.00961 0.00585841 0)
(1.00009 0.000293016 0)
(1.00026 0.00126244 0)
(1.00046 0.00198404 0)
(1.0013 0.00339228 0)
(1.00256 0.00320648 0)
(1.00313 0.00372713 0)
(1.00288 0.00450297 0)
(1.00365 0.00546731 0)
(1.00447 0.00539143 0)
(1.00547 0.0054453 0)
(1.00555 0.00566097 0)
(1.0063 0.00594756 0)
(1.00665 0.00594596 0)
(1.00763 0.00579138 0)
(1.00785 0.00574424 0)
(1.00857 0.0057498 0)
(1.00866 0.00581374 0)
(1.00929 0.00572434 0)
(1.00918 0.00578427 0)
(1.00951 0.00567643 0)
(1.00009 0.000280881 0)
(1.00026 0.00126227 0)
(1.00052 0.00186438 0)
(1.00123 0.00325261 0)
(1.00241 0.00321597 0)
(1.00309 0.00369717 0)
(1.00299 0.0042816 0)
(1.00363 0.00521387 0)
(1.00432 0.0052437 0)