/*--------------------------------*- C++ -*----------------------------------*\
| =========                 |                                                 |
| \\      /  F ield         | OpenFOAM: The Open Source CFD Toolbox           |
|  \\    /   O peration     | Version:  2506                                  |
|   \\  /    A nd           | Website:  www.openfoam.com                      |
|    \\/     M anipulation  |                                                 |
\*---------------------------------------------------------------------------*/
FoamFile
{
    version     2.0;
    format      ascii;
    arch        "LSB;label=32;scalar=64";
    class       volScalarField;
    location    "6.6";
    object      p;
}
// * * * * * * * * * * * * * * * * * * * * * * * * * * * * * * * * * * * * * //

dimensions      [0 2 -2 0 0 0 0];

internalField   nonuniform List<scalar> 
9600
(
-2.06084e-10
0.00063526
-0.00580305
0.0010634
0.00688666
0.00190509
0.00214012
0.00773331
0.00525091
0.004517
0.0049118
0.00530926
0.00636408
0.00580179
0.00531481
0.00614422
0.00605199
0.00706522
0.00736474
0.00951368
-4.83083e-06
0.000619423
-0.00578264
0.00107369
0.00683397
0.00189818
0.00215084
0.00772451
0.00525307
0.00451614
0.0049127
0.00531859
0.00636064
0.00579093
0.0053226
0.00612389
0.00611386
0.00704234
0.00740009
0.0093701
-9.60758e-06
0.000597748
-0.00576714
0.00107619
0.00677791
0.00189604
0.00215736
0.00770686
0.00525888
0.00451159
0.00491661
0.00533291
0.00635239
0.00578137
0.0053315
0.00610359
0.00617802
0.00700149
0.00742848
0.00916384
-1.48639e-05
0.000570347
-0.00575373
0.0010964
0.00672199
0.00190247
0.00216361
0.00768056
0.0052681
0.00450272
0.00491984
0.00535309
0.0063418
0.00577644
0.00533823
0.00608692
0.00623472
0.00695732
0.00743567
0.00895189
-2.10807e-05
0.000538252
-0.00573357
0.00113327
0.0066547
0.00192842
0.00217708
0.00764201
0.00528041
0.00448759
0.00492112
0.00537905
0.00632893
0.00577322
0.00534547
0.00607066
0.00628714
0.00691359
0.00742017
0.00874651
-2.82683e-05
0.000504938
-0.00569793
0.00117221
0.00657259
0.00197975
0.00220252
0.00758928
0.0052959
0.00446534
0.00492127
0.00540813
0.00631515
0.00577064
0.00535489
0.00605386
0.00633729
0.00687128
0.00738345
0.00855183
-3.61926e-05
0.000475135
-0.00564033
0.0011998
0.00647872
0.00205475
0.0022412
0.00752331
0.00531502
0.00443744
0.00492125
0.00543899
0.0063027
0.00576792
0.00536595
0.00603781
0.00638459
0.00683044
0.00732948
0.00836771
-4.4512e-05
0.000452908
-0.00555726
0.00121049
0.0063796
0.0021454
0.00229154
0.00745447
0.00533804
0.0044065
0.00492178
0.00547136
0.00629223
0.00576383
0.00537755
0.00602303
0.00642699
0.00679293
0.00726185
0.00819049
-5.27985e-05
0.000439668
-0.00544807
0.001206
0.00628153
0.00224138
0.00235039
0.00738644
0.00536497
0.0043751
0.00492304
0.00550451
0.00628313
0.00575769
0.00538857
0.00600951
0.00646319
0.00676024
0.00718192
0.00801677
-6.07396e-05
0.000436191
-0.00531401
0.00119306
0.00618841
0.00233317
0.00241396
0.00731985
0.00539585
0.00434508
0.00492472
0.00553722
0.00627491
0.00574943
0.00539784
0.00599753
0.00649237
0.00673178
0.00709078
0.00784535
-6.81406e-05
0.000442416
-0.00515779
0.00117902
0.00610114
0.00241509
0.00247868
0.00725552
0.00543032
0.00431743
0.00492634
0.00556854
0.00626733
0.00573912
0.0054045
0.00598747
0.00651357
0.00670589
0.00699115
0.00767565
-7.47945e-05
0.000457734
-0.00498324
0.00116866
0.0060181
0.00248545
0.00254192
0.00719324
0.00546741
0.00429243
0.00492767
0.00559812
0.00626007
0.00572716
0.00540811
0.00597942
0.00652635
0.00668109
0.00688607
0.00750582
-8.04642e-05
0.000480951
-0.00479476
0.0011637
0.00593691
0.00254463
0.00260219
0.00713244
0.00550593
0.00426977
0.00492864
0.00562605
0.00625277
0.00571442
0.00540832
0.00597324
0.00653137
0.00665537
0.00677756
0.00733392
-8.48818e-05
0.000510486
-0.00459654
0.00116328
0.00585559
0.00259413
0.00265912
0.00707272
0.0055448
0.00424883
0.00492918
0.00565284
0.00624518
0.00570184
0.00540484
0.0059687
0.00652985
0.00662611
0.00666703
0.00715964
-8.77723e-05
0.000544669
-0.00439189
0.00116676
0.00577301
0.00263566
0.00271311
0.00701397
0.00558321
0.0042289
0.00492916
0.00567926
0.00623702
0.00569002
0.00539767
0.00596522
0.00652312
0.00659109
0.0065558
0.00698408
-8.88699e-05
0.000582006
-0.00418301
0.00117332
0.00568882
0.00267084
0.00276489
0.0069563
0.00562063
0.00420957
0.00492835
0.00570605
0.00622799
0.00567928
0.00538722
0.00596171
0.00651247
0.00654921
0.00644481
0.00680858
-8.79296e-05
0.000621303
-0.00397114
0.00118249
0.00560326
0.00270106
0.00281512
0.00689989
0.0056568
0.00419071
0.00492648
0.00573388
0.00621785
0.00566958
0.00537426
0.00595687
0.0064988
0.00650012
0.00633427
0.0066345
-8.47191e-05
0.000661659
-0.00375683
0.00119403
0.00551674
0.00272743
0.0028642
0.00684497
0.00569159
0.00417249
0.00492329
0.0057631
0.00620658
0.00566046
0.00535975
0.00594968
0.00648256
0.0064442
0.0062237
0.00646354
-7.90075e-05
0.000702423
-0.0035403
0.00120784
0.00542966
0.00275086
0.00291237
0.00679175
0.0057249
0.00415523
0.00491852
0.00579388
0.00619442
0.00565117
0.0053445
0.00593943
0.00646387
0.00638244
0.00611243
0.00629755
-7.05634e-05
0.000743125
-0.00332161
0.00122391
0.00534247
0.00277209
0.00295966
0.00674044
0.0057567
0.00413927
0.0049119
0.00582617
0.00618187
0.00564095
0.00532885
0.00592557
0.00644274
0.00631609
0.00599994
0.00613811
-5.91526e-05
0.000783416
-0.00310085
0.00124241
0.00525558
0.00279166
0.00300596
0.00669124
0.00578701
0.00412484
0.00490324
0.00585985
0.00616945
0.00562922
0.00531298
0.0059079
0.00641927
0.00624614
0.0058856
0.00598631
-4.45364e-05
0.000823071
-0.00287821
0.00126353
0.00516927
0.00280997
0.00305111
0.00664431
0.00581591
0.00411207
0.0048925
0.0058947
0.00615761
0.00561559
0.00529696
0.00588631
0.00639354
0.00617373
0.00576832
0.00584268
-2.648e-05
0.000861973
-0.00265396
0.00128748
0.00508374
0.00282742
0.00309496
0.00659969
0.00584344
0.00410091
0.0048797
0.00593049
0.00614667
0.0055998
0.00528086
0.00586023
0.00636541
0.00610107
0.00564699
0.00570606
-4.76445e-06
0.000900111
-0.00242851
0.00131445
0.00499915
0.0028444
0.00313728
0.00655737
0.00586984
0.00409106
0.00486485
0.00596717
0.00613688
0.00558162
0.00526481
0.00582911
0.00633423
0.00603127
0.00552147
0.00557229
2.08202e-05
0.0009376
-0.00220238
0.0013446
0.00491563
0.00286121
0.00317784
0.00651714
0.00589558
0.00408226
0.00484767
0.00600477
0.00612855
0.00556058
0.00524913
0.00579315
0.00629878
0.00596687
0.00539377
0.00543465
5.0459e-05
0.000974639
-0.00197607
0.00137807
0.0048332
0.0028782
0.00321657
0.00647855
0.00592127
0.00407449
0.00482753
0.00604331
0.00612225
0.00553578
0.00523391
0.00575346
0.00625745
0.0059091
0.00526886
0.00528651
8.42945e-05
0.00101153
-0.00175019
0.001415
0.00475205
0.00289566
0.00325335
0.00644102
0.00594765
0.00406817
0.00480361
0.0060828
0.00611911
0.0055061
0.00521866
0.00571167
0.00620855
0.00585748
0.00515402
0.00512562
0.00012239
0.00104874
-0.00152537
0.00145545
0.0046725
0.00291382
0.00328831
0.00640383
0.005975
0.00406399
0.00477509
0.00612284
0.00612075
0.00547084
0.00520246
0.00567007
0.00615085
0.00580853
0.00505586
0.00495834
0.000164793
0.00108683
-0.00130218
0.00149945
0.00459488
0.00293286
0.00332181
0.0063663
0.00600319
0.00406268
0.00474115
0.00616224
0.00612883
0.00543008
0.00518382
0.00563145
0.00608485
0.00575582
0.00497704
0.00479905
0.000211429
0.00112639
-0.00108121
0.00154697
0.00451959
0.00295276
0.00335422
0.0063281
0.00603218
0.00406511
0.00470119
0.00619913
0.00614476
0.00538472
0.00516037
0.00559796
0.00601446
0.00569418
0.00491261
0.00466085
0.000262137
0.00116811
-0.000862897
0.00159788
0.00444705
0.00297348
0.00338606
0.00628914
0.00606165
0.0040722
0.00465527
0.00623138
0.00616894
0.0053361
0.00512956
0.00556977
0.005945
0.00562351
0.0048531
0.00454877
0.000316816
0.00121269
-0.000647547
0.00165204
0.00437785
0.0029947
0.00341763
0.0062493
0.00609096
0.00408467
0.00460416
0.00625717
0.00620106
0.00528559
0.00508974
0.00554607
0.00587978
0.00554722
0.00479263
0.00445816
0.000375312
0.00126095
-0.000435325
0.00170924
0.0043126
0.00301597
0.00344874
0.0062094
0.00611946
0.00410295
0.00454867
0.00627507
0.00624107
0.0052345
0.0050395
0.00552697
0.00582078
0.00546708
0.00473083
0.00438194
0.000437453
0.00131567
-0.000226135
0.00176904
0.00425189
0.00303744
0.00347915
0.0061698
0.00614659
0.00412692
0.00448926
0.00628338
0.00628923
0.00518479
0.0049764
0.00551252
0.00577215
0.00538221
0.0046674
0.00431749
0.000503049
0.00137332
-1.95644e-05
0.00183085
0.00419626
0.00305955
0.00350854
0.00612484
0.0061722
0.00415628
0.0044262
0.00628029
0.00634562
0.00513937
0.00489724
0.00550019
0.00574116
0.00529329
0.00459735
0.00426473
0.000572012
0.00143532
0.000184954
0.00189422
0.00414599
0.00308274
0.00353638
0.00608063
0.00619672
0.00419089
0.00435995
0.00626397
0.00640943
0.00510235
0.00479991
0.00548328
0.0057343
0.00520782
0.00451326
0.0042196
0.000644291
0.0015017
0.000388203
0.00195875
0.00410107
0.00310806
0.00356173
0.00604404
0.00622102
0.00423096
0.0042912
0.0062325
0.00647883
0.00507892
0.00468518
0.00545241
0.00575262
0.00513958
0.00441142
0.00417122
0.000719953
0.00157211
0.000591179
0.00202419
0.00406096
0.00313684
0.00358365
0.00600877
0.00624649
0.00427694
0.00422056
0.00618405
0.0065512
0.00507459
0.00455677
0.00539841
0.00579037
0.00510197
0.00429756
0.00410754
0.000799302
0.00164564
0.000795015
0.00209076
0.00402442
0.00317052
0.00360219
0.00597491
0.00627418
0.00433011
0.00414857
0.00611624
0.00662299
0.00509451
0.00442098
0.00531369
0.00583691
0.005104
0.00418544
0.00402008
0.000882714
0.00172131
0.00100081
0.00215935
0.00398956
0.00321059
0.00361843
0.00593739
0.00630376
0.00439236
0.00407677
0.00602657
0.00668884
0.00514273
0.00428722
0.005193
0.00587861
0.00515002
0.00409231
0.0039063
0.000970759
0.00179791
0.00120875
0.00223151
0.00395467
0.00325766
0.00363422
0.00589305
0.00633333
0.00446574
0.00400877
0.00591363
0.00674133
0.00522073
0.00416799
0.00503527
0.00589917
0.00523885
0.0040379
0.00377087
0.00106414
0.00187443
0.00141805
0.0023095
0.00391881
0.00331127
0.00365196
0.005841
0.00636076
0.00455133
0.00394925
0.00577844
0.00677205
0.00532533
0.00407683
0.00484636
0.00588109
0.00535961
0.00404194
0.00362962
0.0011636
0.00195017
0.00162727
0.0023963
0.00388145
0.00336944
0.00367434
0.00578092
0.00638294
0.00464847
0.00390367
0.00562546
0.00677265
0.00544774
0.00402534
0.0046399
0.00581177
0.00549076
0.00411697
0.00351169
0.00126988
0.00202483
0.00183444
0.00249507
0.00384299
0.00342843
0.00370455
0.0057146
0.00639528
0.00475401
0.00387776
0.00546171
0.00673744
0.00557654
0.00401961
0.00443285
0.00568977
0.00560803
0.00425836
0.00344917
0.00138343
0.00209845
0.00203687
0.00260836
0.00380501
0.00348407
0.0037448
0.00564394
0.006393
0.00486379
0.0038752
0.00529444
0.00666618
0.00570086
0.00405878
0.00424054
0.00552278
0.00569279
0.00444538
0.00346371
0.00150472
0.00217127
0.00223136
0.00273784
0.00377037
0.00353234
0.00379449
0.00557211
0.00637454
0.00497243
0.00389659
0.00513148
0.0065629
0.00581169
0.0041378
0.00407563
0.00532138
0.00573543
0.0046546
0.00355762
0.00163421
0.00224422
0.00241455
0.00288317
0.00374317
0.00357002
0.00385079
0.00550768
0.00634226
0.00507204
0.00393888
0.00498167
0.00643463
0.00590214
0.00424882
0.00394944
0.00509762
0.00572955
0.00486623
0.00371753
0.00177198
0.00231908
0.00258357
0.00304158
0.0037339
0.003596
0.00390963
0.00545686
0.00629877
0.005156
0.00399719
0.00485158
0.00629138
0.0059692
0.00438186
0.00386988
0.00486748
0.00567017
0.00506225
0.00392591
0.00191778
0.00239791
0.00273665
0.00320916
0.00374634
0.00361068
0.00396415
0.00542489
0.00625165
0.00522452
0.00406322
0.00474024
0.00614247
0.00601473
0.00452816
0.00383783
0.00464801
0.00555898
0.00522443
0.00416568
0.00207122
0.00248277
0.00287278
0.00338084
0.00378413
0.00361598
0.00400582
0.00540765
0.00621249
0.00528185
0.00412989
0.00464582
0.00599244
0.0060424
0.00468322
0.00384886
0.00445078
0.00540577
0.0053381
0.00441898
0.00223136
0.00257601
0.00299241
0.00355041
0.00385002
0.00361958
0.00402865
0.00540173
0.00618839
0.00533339
0.00419552
0.00456608
0.00584213
0.00605202
0.00484322
0.00390054
0.00428443
0.00522448
0.00539651
0.00466793
0.00239685
0.00267976
0.00309736
0.00371135
0.00394409
0.00363019
0.00402917
0.00539294
0.0061806
0.00538998
0.00426299
0.00449786
0.00569238
0.00604122
0.00500141
0.00399164
0.00415893
0.00502963
0.00539831
0.00489465
0.0025663
0.00279542
0.00319131
0.0038577
0.00406226
0.00365844
0.00400854
0.00536648
0.00618459
0.00546265
0.00433717
0.00444028
0.00554352
0.00601041
0.00515023
0.00411627
0.00408291
0.00483829
0.00534638
0.00508194
0.00273837
0.00292365
0.00327943
0.00398473
0.00419661
0.00371278
0.00397462
0.00531278
0.00619325
0.0055561
0.00442792
0.00439752
0.00539463
0.00595965
0.00528502
0.0042645
0.00405843
0.0046698
0.00525258
0.00521566
0.00291168
0.00306458
0.00336744
0.00408896
0.00433752
0.00379925
0.00393853
0.00522757
0.00619202
0.00566778
0.00454529
0.00437625
0.00524829
0.00588608
0.00540178
0.00442878
0.00408016
0.00453758
0.0051372
0.00528957
0.00308535
0.00321693
0.00346074
0.00416964
0.00447363
0.00391972
0.00391588
0.00511395
0.00616421
0.00579275
0.00469267
0.00438527
0.00511394
0.00578953
0.0054935
0.00460404
0.00414285
0.00444565
0.00502082
0.00531098
0.00325954
0.00338039
0.00356125
0.00422712
0.00459494
0.0040707
0.00392371
0.00497591
0.00609785
0.00591647
0.00486732
0.00443017
0.00500082
0.00567806
0.0055526
0.00478067
0.00424351
0.00439403
0.00491712
0.00529838
0.00343343
0.00355469
0.00367047
0.00426539
0.00469565
0.00424169
0.00397138
0.00484024
0.00599301
0.00601716
0.00506465
0.00451427
0.00491613
0.00556286
0.00557864
0.00494489
0.00437657
0.00438414
0.00483246
0.00527057
0.00360392
0.00372912
0.00379431
0.00430023
0.00477287
0.00441684
0.00405887
0.00473158
0.00585874
0.00607681
0.00526984
0.00463792
0.0048666
0.00545132
0.00557787
0.00508701
0.00453136
0.00441902
0.00477099
0.00523797
0.00377097
0.00390349
0.00393217
0.00433796
0.00482722
0.00458462
0.00417909
0.0046627
0.0057091
0.0060905
0.00546314
0.00479652
0.00486008
0.00535099
0.00555554
0.00520455
0.00469448
0.00449749
0.00473934
0.00520248
0.0039355
0.00407469
0.00408036
0.00438474
0.00486505
0.00473787
0.00437453
0.00464324
0.00556615
0.0060646
0.00562921
0.00497843
0.00489966
0.00527447
0.00551752
0.00529706
0.00485526
0.00461169
0.00474764
0.00517026
0.00409711
0.00424002
0.0042359
0.00444581
0.00489256
0.00486828
0.00453633
0.00466707
0.00544723
0.0060079
0.00575974
0.00516836
0.00497927
0.00523332
0.00547537
0.00536368
0.00500508
0.00474793
0.00480115
0.00515854
0.00425657
0.00439968
0.0043941
0.00452141
0.00491686
0.00498401
0.00469953
0.00473074
0.00536279
0.00593493
0.00585276
0.00535463
0.00509154
0.00523021
0.0054434
0.00540929
0.00513748
0.00489111
0.00489152
0.00518328
0.00441389
0.00455409
0.00455019
0.00461066
0.00494372
0.00507118
0.0048555
0.00482424
0.00531635
0.00586238
0.00591261
0.00552828
0.00523069
0.0052642
0.00543102
0.00544513
0.005253
0.00503312
0.00500286
0.00524388
0.00456853
0.0047015
0.00470256
0.0047122
0.0049774
0.00513626
0.00499864
0.00493655
0.00530775
0.00580262
0.00594711
0.00568076
0.00538817
0.00533573
0.00544171
0.00547931
0.00535575
0.00517304
0.00512608
0.00532974
0.00472058
0.00484486
0.00484835
0.00482148
0.00502081
0.00519154
0.00512546
0.00505945
0.00533386
0.00576487
0.00596748
0.00580926
0.00555017
0.00544164
0.00548294
0.00551898
0.00544878
0.00531043
0.00525959
0.00543416
0.00486791
0.00498046
0.00498808
0.00493738
0.00507585
0.00524575
0.00523614
0.00518463
0.00538878
0.00575448
0.00598718
0.00592006
0.00570787
0.00557313
0.00556185
0.00557611
0.00553687
0.00544291
0.00540105
0.00555415
0.0050125
0.00511282
0.00511672
0.00505279
0.00514202
0.00530112
0.00533203
0.00530776
0.00546533
0.00576986
0.00601383
0.00602105
0.00586281
0.00572168
0.00567626
0.00566367
0.00563069
0.00557121
0.00554724
0.0056875
0.00515082
0.00524
0.00523785
0.00516686
0.00521554
0.00533403
0.00541334
0.00542533
0.00555763
0.00580979
0.00605104
0.0061161
0.00601681
0.00588473
0.00581955
0.00578905
0.0057483
0.00570514
0.00569931
0.0058343
0.00527913
0.00535745
0.00535525
0.00527973
0.0052963
0.0053917
0.00548688
0.00553273
0.0056573
0.00587334
0.0061052
0.00621027
0.00617166
0.00606569
0.00599052
0.00595209
0.00590495
0.00586162
0.00586485
0.00599578
0.00540386
0.00547417
0.00545716
0.00537995
0.00538022
0.00545518
0.00555601
0.00563034
0.00575621
0.00595237
0.00617876
0.00631108
0.0063289
0.00626646
0.0061948
0.0061536
0.0061097
0.00606361
0.00606538
0.00618562
0.00551571
0.00558131
0.00555436
0.00547565
0.00546661
0.00551915
0.00561816
0.00571797
0.00585318
0.00603877
0.00626825
0.0064253
0.00649098
0.00648478
0.00643773
0.00639875
0.00636493
0.00632715
0.0063305
0.00643819
0.00561373
0.00567844
0.00564703
0.00556145
0.00554627
0.00558298
0.00567364
0.00578375
0.00593662
0.00612787
0.00636875
0.00656201
0.00667321
0.00672295
0.00671406
0.0066745
0.00664346
0.00662895
0.00664968
0.00677264
0.0056989
0.00577805
0.00573959
0.00565474
0.00564013
0.0056644
0.00573702
0.00583331
0.00598059
0.00619538
0.00648221
0.00675975
0.00697361
0.00712451
0.00720969
0.00720984
0.00715157
0.00704112
0.00693787
0.00692843
0.005769
0.00581257
0.00574285
0.00567858
0.00569126
0.00572406
0.00580534
0.00589289
0.00598187
0.00608685
0.00629248
0.00662514
0.00701935
0.00734242
0.00759001
0.00780707
0.00807947
0.00842084
0.00877093
0.00904169
0.00585438
0.00597788
0.00597038
0.00586306
0.00579227
0.00574421
0.00575835
0.00585143
0.00612027
0.00649773
0.00686767
0.00716094
0.00740757
0.00762009
0.00783268
0.00805144
0.00824559
0.00844695
0.00863283
0.00874517
0.00574403
0.00577381
0.00582621
0.00587043
0.00595602
0.00603417
0.00613126
0.00624508
0.00638763
0.00656797
0.00677562
0.006988
0.00722845
0.00748374
0.00775799
0.00809048
0.00847473
0.00888504
0.00926743
0.00953723
0.00593731
0.00609634
0.00614276
0.00609605
0.00609328
0.0061366
0.00622349
0.00631965
0.00648263
0.00670781
0.00701206
0.00730461
0.00755894
0.0077744
0.00790265
0.00793101
0.00786576
0.00770892
0.00751096
0.00734193
0.00578035
0.00582747
0.00597842
0.00610971
0.00622115
0.00628258
0.00636379
0.00643954
0.00659237
0.00678263
0.00699868
0.00723553
0.00747477
0.00774359
0.00805815
0.00840937
0.00880152
0.00919221
0.00952579
0.0097116
0.00590494
0.00614516
0.00631456
0.00637134
0.00643102
0.00648692
0.00656004
0.00658623
0.00670211
0.00688899
0.00711926
0.00739051
0.00765631
0.00790772
0.0081642
0.00840584
0.00863385
0.00883079
0.00897061
0.00899294
0.0119731
0.00838704
0.00250009
-0.00199026
-0.00272483
-0.00116992
0.000636822
0.00197976
0.00288606
0.00360525
0.00428345
0.00487022
0.00535932
0.00585082
0.00633718
0.00674663
0.00712116
0.00760036
0.00822936
0.00886911
0.0093731
0.00976439
0.0101606
0.0106497
0.0112057
0.0117141
0.0121422
0.012583
0.0130636
0.0135273
0.0140163
0.0146084
0.0152404
0.0158425
0.016425
0.0170091
0.0175848
0.018142
0.0186843
0.0192095
0.019736
0.0202749
0.0208021
0.0213168
0.0218714
0.0224794
0.0230927
0.0236815
0.0242966
0.0249756
0.0256588
0.026333
0.0270599
0.0278397
0.0285481
0.0291519
0.0297335
0.030402
0.0311894
0.0320442
0.0328952
0.0337347
0.0345569
0.0353498
0.0361668
0.036992
0.0378277
0.0387099
0.0396235
0.0405187
0.0414679
0.0424338
0.0434006
0.0443764
0.0453971
0.0464345
0.0474943
0.0485779
0.0496824
0.050817
0.0519697
0.0531771
0.0543544
0.0555711
0.056814
0.0581117
0.0594203
0.0607129
0.0620333
0.0633598
0.0647363
0.0661701
0.0675752
0.0690427
0.0704871
0.0719583
0.0734241
0.0748587
0.0761875
0.0773487
0.0115382
0.00827588
0.00259271
-0.00184142
-0.00263725
-0.00112707
0.000664471
0.00199858
0.00289896
0.00361482
0.00429147
0.00487732
0.00536553
0.00585639
0.00634231
0.00675114
0.00712484
0.00760332
0.00823201
0.00887173
0.00937558
0.00976653
0.0101624
0.0106511
0.0112072
0.0117155
0.0121435
0.0125841
0.0130648
0.0135284
0.0140172
0.0146093
0.0152413
0.0158434
0.0164259
0.0170099
0.0175857
0.0181428
0.0186851
0.0192103
0.0197367
0.0202756
0.0208029
0.0213175
0.021872
0.02248
0.0230933
0.0236821
0.0242971
0.0249761
0.0256593
0.0263334
0.0270603
0.0278402
0.0285486
0.0291523
0.0297338
0.0304023
0.0311897
0.0320445
0.0328955
0.033735
0.0345572
0.0353501
0.036167
0.0369923
0.0378279
0.0387101
0.0396237
0.0405189
0.0414681
0.042434
0.0434008
0.0443766
0.0453973
0.0464347
0.0474945
0.048578
0.0496825
0.0508171
0.0519698
0.0531773
0.0543546
0.0555712
0.0568142
0.0581118
0.0594204
0.0607131
0.0620335
0.0633599
0.0647364
0.0661702
0.0675753
0.0690428
0.0704872
0.0719584
0.0734242
0.0748588
0.0761875
0.0773487
0.0110455
0.00812151
0.00275909
-0.00157054
-0.00248803
-0.00107503
0.000690913
0.00202098
0.00291738
0.00362859
0.00430168
0.00488523
0.00537192
0.00586189
0.00634735
0.00675576
0.00712885
0.00760667
0.00823494
0.00887445
0.00937804
0.00976865
0.0101641
0.0106526
0.0112086
0.0117169
0.0121447
0.0125852
0.0130658
0.0135293
0.0140179
0.01461
0.0152422
0.0158443
0.0164267
0.0170107
0.0175864
0.0181435
0.0186858
0.0192109
0.0197374
0.0202763
0.0208035
0.0213181
0.0218726
0.0224806
0.0230939
0.0236826
0.0242975
0.0249765
0.0256597
0.0263338
0.0270607
0.0278406
0.028549
0.0291527
0.0297341
0.0304025
0.0311899
0.0320448
0.0328957
0.0337352
0.0345575
0.0353503
0.0361672
0.0369925
0.0378281
0.0387103
0.0396239
0.040519
0.0414682
0.0424341
0.0434009
0.0443767
0.0453974
0.0464348
0.0474946
0.0485782
0.0496827
0.0508172
0.05197
0.0531774
0.0543547
0.0555713
0.0568143
0.0581119
0.0594205
0.0607132
0.0620336
0.06336
0.0647365
0.0661703
0.0675754
0.0690429
0.0704872
0.0719585
0.0734243
0.0748588
0.0761877
0.0773488
0.0105726
0.00797532
0.00298076
-0.00122029
-0.00228067
-0.00100213
0.000728377
0.00205463
0.00294599
0.00364988
0.00431676
0.00489639
0.00538075
0.00586901
0.00635335
0.00676156
0.0071348
0.00761212
0.00823927
0.00887782
0.00938106
0.00977165
0.0101669
0.010655
0.0112105
0.0117186
0.0121462
0.0125865
0.0130669
0.0135302
0.0140186
0.0146107
0.0152431
0.0158451
0.0164275
0.0170114
0.0175871
0.0181443
0.0186866
0.0192117
0.019738
0.0202769
0.0208041
0.0213186
0.0218731
0.0224811
0.0230944
0.0236831
0.024298
0.024977
0.0256602
0.0263341
0.027061
0.027841
0.0285495
0.0291531
0.0297344
0.0304027
0.0311901
0.0320451
0.032896
0.0337355
0.0345577
0.0353506
0.0361674
0.0369927
0.0378283
0.0387105
0.0396241
0.0405192
0.0414684
0.0424343
0.0434011
0.0443769
0.0453976
0.046435
0.0474947
0.0485783
0.0496828
0.0508174
0.0519701
0.0531775
0.0543548
0.0555714
0.0568144
0.058112
0.0594207
0.0607133
0.0620337
0.0633601
0.0647366
0.0661704
0.0675754
0.0690429
0.0704873
0.0719586
0.0734244
0.074859
0.0761879
0.077349
0.0101232
0.00783606
0.00321997
-0.00084422
-0.00204753
-0.000917694
0.000771757
0.00209622
0.00298373
0.0036791
0.00433769
0.00491209
0.00539357
0.00587915
0.00636124
0.00676927
0.00714365
0.00762079
0.00824572
0.00888203
0.00938475
0.00977606
0.0101716
0.0106589
0.0112134
0.0117209
0.0121484
0.0125885
0.0130686
0.0135313
0.0140194
0.0146115
0.0152439
0.0158461
0.0164285
0.0170123
0.0175878
0.018145
0.0186874
0.0192125
0.0197387
0.0202775
0.0208047
0.0213193
0.0218737
0.0224817
0.023095
0.0236837
0.0242985
0.0249775
0.0256607
0.0263346
0.0270614
0.0278415
0.0285501
0.0291536
0.0297347
0.0304029
0.0311904
0.0320455
0.0328964
0.0337358
0.0345581
0.0353508
0.0361677
0.0369929
0.0378285
0.0387107
0.0396243
0.0405194
0.0414685
0.0424345
0.0434013
0.044377
0.0453977
0.0464351
0.0474949
0.0485784
0.0496829
0.0508175
0.0519702
0.0531776
0.054355
0.0555715
0.0568145
0.0581121
0.0594208
0.0607134
0.0620338
0.0633602
0.0647367
0.0661705
0.0675755
0.069043
0.0704874
0.0719587
0.0734245
0.0748591
0.0761882
0.0773492
0.00969592
0.00768761
0.00345024
-0.000463536
-0.00179988
-0.000826484
0.000816213
0.00214053
0.00302617
0.00371294
0.0043624
0.00493127
0.00541007
0.00589259
0.00637155
0.0067793
0.00715567
0.00763292
0.00825442
0.00888698
0.00938895
0.00978194
0.0101786
0.0106648
0.0112175
0.0117243
0.012152
0.0125918
0.013071
0.013533
0.0140205
0.0146123
0.0152447
0.015847
0.0164294
0.017013
0.0175884
0.0181457
0.0186884
0.0192136
0.0197396
0.0202781
0.0208054
0.02132
0.0218745
0.0224823
0.0230956
0.0236843
0.0242991
0.0249781
0.0256612
0.0263351
0.027062
0.0278421
0.0285508
0.0291542
0.029735
0.030403
0.0311906
0.0320459
0.0328968
0.0337362
0.0345585
0.0353512
0.036168
0.0369932
0.0378287
0.0387109
0.0396245
0.0405196
0.0414687
0.0424347
0.0434014
0.0443772
0.0453979
0.0464353
0.047495
0.0485786
0.0496831
0.0508176
0.0519703
0.0531778
0.0543551
0.0555716
0.0568146
0.0581122
0.0594209
0.0607135
0.0620339
0.0633603
0.0647368
0.0661706
0.0675756
0.0690431
0.0704876
0.0719588
0.0734247
0.0748594
0.0761886
0.0773496
0.00928864
0.00752228
0.00366347
-8.09168e-05
-0.00153685
-0.000727215
0.000861236
0.0021859
0.00307148
0.00374961
0.00438925
0.00495243
0.0054289
0.00590848
0.00638406
0.00679156
0.00717042
0.00764782
0.00826491
0.00889246
0.00939345
0.00978898
0.0101875
0.0106725
0.0112227
0.0117287
0.0121569
0.0125967
0.0130748
0.0135356
0.0140224
0.0146135
0.0152455
0.0158479
0.0164304
0.0170137
0.0175887
0.0181462
0.0186894
0.0192149
0.0197406
0.0202788
0.0208061
0.021321
0.0218754
0.0224831
0.0230962
0.0236851
0.0242999
0.0249787
0.0256618
0.0263357
0.0270627
0.0278429
0.0285515
0.0291548
0.0297354
0.0304033
0.0311909
0.0320463
0.0328973
0.0337366
0.0345589
0.0353516
0.0361683
0.0369936
0.037829
0.0387112
0.0396248
0.0405198
0.041469
0.0424349
0.0434016
0.0443774
0.0453981
0.0464355
0.0474952
0.0485787
0.0496832
0.0508178
0.0519704
0.053178
0.0543552
0.0555717
0.0568147
0.0581124
0.0594211
0.0607136
0.062034
0.0633604
0.0647369
0.0661708
0.0675757
0.0690432
0.0704877
0.0719589
0.0734249
0.0748597
0.0761892
0.07735
0.00890183
0.00734266
0.00385966
0.000303633
-0.00125708
-0.000617867
0.000907287
0.00223185
0.00311929
0.00378895
0.00441799
0.00497495
0.00544912
0.00592595
0.00639819
0.00680552
0.00718709
0.00766461
0.00827662
0.00889834
0.00939815
0.0097968
0.0101978
0.0106815
0.0112288
0.0117338
0.012163
0.012603
0.0130799
0.0135395
0.0140252
0.0146152
0.0152465
0.0158489
0.0164314
0.017014
0.0175886
0.0181462
0.0186903
0.0192163
0.0197418
0.0202795
0.0208069
0.0213223
0.0218768
0.0224839
0.0230969
0.023686
0.0243008
0.0249793
0.0256623
0.0263364
0.0270634
0.0278436
0.0285524
0.0291556
0.0297359
0.0304036
0.0311913
0.0320468
0.0328978
0.0337371
0.0345595
0.0353521
0.0361688
0.036994
0.0378294
0.0387115
0.0396252
0.0405202
0.0414693
0.0424352
0.0434019
0.0443776
0.0453983
0.0464357
0.0474954
0.0485789
0.0496834
0.0508179
0.0519706
0.0531781
0.0543554
0.0555719
0.0568148
0.0581125
0.0594213
0.0607138
0.0620341
0.0633605
0.064737
0.0661709
0.0675759
0.0690434
0.0704879
0.071959
0.0734251
0.0748601
0.07619
0.0773506
0.00854009
0.0071561
0.00403813
0.000686517
-0.000961587
-0.000496869
0.000955112
0.002278
0.00316936
0.0038311
0.00444872
0.00499868
0.00547032
0.00594448
0.00641344
0.00682064
0.00720501
0.00768264
0.00828928
0.00890469
0.00940311
0.00980512
0.010209
0.0106914
0.0112353
0.0117392
0.0121698
0.0126104
0.0130862
0.0135446
0.0140291
0.0146176
0.0152479
0.0158502
0.0164324
0.0170143
0.017588
0.0181458
0.0186909
0.0192177
0.019743
0.0202802
0.0208079
0.021324
0.0218785
0.0224851
0.0230978
0.0236872
0.0243021
0.02498
0.0256627
0.026337
0.0270642
0.0278443
0.0285532
0.0291566
0.0297367
0.030404
0.0311917
0.0320474
0.0328984
0.0337376
0.0345601
0.0353527
0.0361693
0.0369945
0.0378299
0.038712
0.0396256
0.0405206
0.0414697
0.0424356
0.0434022
0.0443779
0.0453985
0.0464359
0.0474956
0.0485791
0.0496835
0.0508181
0.0519707
0.0531783
0.0543556
0.055572
0.056815
0.0581126
0.0594215
0.0607139
0.0620343
0.0633607
0.0647371
0.0661711
0.067576
0.0690435
0.0704881
0.0719591
0.0734255
0.0748606
0.076191
0.0773514
0.00820834
0.00696791
0.00419568
0.00106254
-0.000652035
-0.000362598
0.00100548
0.00232365
0.00322098
0.00387592
0.00448156
0.00502372
0.00549249
0.00596394
0.00642957
0.00683659
0.00722386
0.00770171
0.00830284
0.00891161
0.00940842
0.00981383
0.0102208
0.0107019
0.0112422
0.0117449
0.0121768
0.0126182
0.0130932
0.0135506
0.014034
0.0146207
0.0152496
0.0158516
0.0164337
0.0170146
0.0175871
0.0181448
0.018691
0.019219
0.0197442
0.0202809
0.0208089
0.0213261
0.0218807
0.0224865
0.0230989
0.0236888
0.0243038
0.024981
0.0256631
0.0263376
0.0270648
0.0278447
0.028554
0.0291577
0.0297376
0.0304047
0.0311923
0.032048
0.0328989
0.033738
0.0345606
0.0353534
0.0361699
0.0369951
0.0378306
0.0387125
0.0396262
0.0405212
0.0414703
0.0424361
0.0434026
0.0443783
0.0453989
0.0464363
0.0474958
0.0485794
0.0496837
0.0508183
0.0519709
0.0531785
0.0543557
0.0555721
0.0568151
0.0581128
0.0594217
0.0607141
0.0620344
0.0633608
0.0647373
0.0661712
0.0675762
0.0690437
0.0704883
0.0719592
0.0734258
0.0748613
0.0761922
0.0773523
0.00790758
0.006781
0.00433035
0.00142783
-0.000330385
-0.000213995
0.00105893
0.00236795
0.00327329
0.00392328
0.00451681
0.0050504
0.00551579
0.00598433
0.00644651
0.00685334
0.00724365
0.0077219
0.00831739
0.00891917
0.00941408
0.00982289
0.010233
0.010713
0.0112496
0.0117508
0.0121841
0.0126263
0.0131006
0.0135571
0.0140397
0.0146246
0.0152518
0.0158533
0.0164352
0.017015
0.0175862
0.0181434
0.0186907
0.0192199
0.0197452
0.0202815
0.02081
0.0213283
0.0218833
0.0224882
0.0231002
0.0236908
0.0243059
0.0249822
0.0256638
0.0263382
0.0270651
0.0278447
0.0285542
0.0291586
0.0297388
0.0304058
0.0311934
0.0320489
0.0328994
0.0337383
0.0345611
0.035354
0.0361705
0.0369958
0.0378313
0.0387132
0.0396268
0.0405218
0.0414709
0.0424367
0.0434032
0.0443788
0.0453994
0.0464367
0.0474962
0.0485797
0.049684
0.0508185
0.0519711
0.0531787
0.0543559
0.0555723
0.0568153
0.058113
0.0594219
0.0607143
0.0620345
0.063361
0.0647374
0.0661714
0.0675763
0.0690438
0.0704886
0.0719594
0.0734263
0.0748623
0.0761936
0.0773534
0.00763543
0.00659884
0.00444312
0.00177914
1.15715e-07
-5.06248e-05
0.00111659
0.00241077
0.00332575
0.00397315
0.00455481
0.00507905
0.00554043
0.00600577
0.00646436
0.00687098
0.00726453
0.00774333
0.00833305
0.00892741
0.00942012
0.00983233
0.0102458
0.0107246
0.0112573
0.0117569
0.0121916
0.0126346
0.0131081
0.0135641
0.014046
0.014629
0.0152543
0.0158552