/*--------------------------------*- C++ -*----------------------------------*\
| =========                 |                                                 |
| \\      /  F ield         | OpenFOAM: The Open Source CFD Toolbox           |
|  \\    /   O peration     | Version:  2506                                  |
|   \\  /    A nd           | Website:  www.openfoam.com                      |
|    \\/     M anipulation  |                                                 |
\*---------------------------------------------------------------------------*/
FoamFile
{
    version     2.0;
    format      ascii;
    arch        "LSB;label=32;scalar=64";
    class       surfaceScalarField;
    location    "4.85";
    object      phi;
}
// * * * * * * * * * * * * * * * * * * * * * * * * * * * * * * * * * * * * * //

dimensions      [0 3 -1 0 0 0 0];

oriented        oriented;

internalField   nonuniform List<scalar> 
19000
(
1.23441e-06
-5.22034e-07
1.03955e-06
1.44284e-06
1.02853e-06
-1.21612e-06
1.26611e-06
-7.3309e-07
1.27434e-06
1.94761e-07
1.11244e-06
5.90097e-07
1.13816e-06
-1.32567e-08
1.13388e-06
2.44586e-08
1.11713e-06
2.053e-08
1.15994e-06
8.4008e-07
1.16423e-06
5.7393e-07
1.16418e-06
6.78051e-07
1.16729e-06
4.70703e-07
1.18711e-06
6.1654e-07
1.17791e-06
4.11209e-07
1.16874e-06
4.45115e-07
1.1658e-06
2.40562e-07
1.1505e-06
2.10536e-07
1.1474e-06
4.67225e-08
3.3391e-08
1.12262e-06
1.29591e-06
-5.93679e-07
1.11216e-06
1.62658e-06
1.0968e-06
-1.20075e-06
1.3246e-06
-9.60885e-07
1.33836e-06
1.80996e-07
1.17519e-06
7.53272e-07
1.20183e-06
-3.99033e-08
1.19027e-06
3.60257e-08
1.17274e-06
3.80619e-08
1.22577e-06
7.87046e-07
1.22189e-06
5.77806e-07
1.23075e-06
6.69197e-07
1.22354e-06
4.77915e-07
1.25612e-06
5.83961e-07
1.2332e-06
4.34125e-07
1.24078e-06
4.37531e-07
1.21842e-06
2.62924e-07
1.22625e-06
2.02704e-07
1.19575e-06
7.72305e-08
2.14039e-08
1.20773e-06
1.35971e-06
-6.70603e-07
1.20643e-06
1.77986e-06
1.17424e-06
-1.16857e-06
1.37993e-06
-1.16657e-06
1.40752e-06
1.53401e-07
1.25578e-06
9.05019e-07
1.27438e-06
-5.85096e-08
1.26619e-06
4.42177e-08
1.23628e-06
6.79777e-08
1.29981e-06
7.23508e-07
1.28491e-06
5.92709e-07
1.30659e-06
6.47515e-07
1.28563e-06
4.98879e-07
1.32373e-06
5.45861e-07
1.29832e-06
4.59536e-07
1.30508e-06
4.30764e-07
1.2846e-06
2.83408e-07
1.28616e-06
2.01142e-07
1.26378e-06
9.96132e-08
2.75222e-08
1.25766e-06
1.42642e-06
-7.52915e-07
1.3189e-06
1.88737e-06
1.25926e-06
-1.10893e-06
1.43197e-06
-1.33928e-06
1.48071e-06
1.04667e-07
1.35401e-06
1.03172e-06
1.35485e-06
-5.93514e-08
1.35631e-06
4.27547e-08
1.30711e-06
1.17174e-07
1.37412e-06
6.56504e-07
1.35391e-06
6.12918e-07
1.37832e-06
6.23107e-07
1.35524e-06
5.21953e-07
1.3836e-06
5.17503e-07
1.37018e-06
4.72958e-07
1.36973e-06
4.31215e-07
1.35568e-06
2.97451e-07
1.35143e-06
2.05393e-07
1.33302e-06
1.18027e-07
4.0539e-08
1.32e-06
1.49441e-06
-8.38967e-07
1.44153e-06
1.94025e-06
1.3468e-06
-1.01419e-06
1.48056e-06
-1.47305e-06
1.555e-06
3.02306e-08
1.46415e-06
1.12256e-06
1.43871e-06
-3.39068e-08
1.448e-06
3.34637e-08
1.38426e-06
1.80912e-07
1.4412e-06
5.9957e-07
1.42813e-06
6.2598e-07
1.44594e-06
6.05305e-07
1.42996e-06
5.37932e-07
1.44574e-06
5.01722e-07
1.44343e-06
4.75266e-07
1.4416e-06
4.33043e-07
1.42979e-06
3.09265e-07
1.42319e-06
2.11996e-07
1.40496e-06
1.3625e-07
5.74591e-08
1.38804e-06
1.56158e-06
-9.24874e-07
1.56072e-06
1.94111e-06
1.43165e-06
-8.8513e-07
1.52707e-06
-1.56846e-06
1.6271e-06
-6.98006e-08
1.57545e-06
1.17421e-06
1.5219e-06
1.96382e-08
1.52869e-06
2.66818e-08
1.46576e-06
2.43834e-07
1.50547e-06
5.59866e-07
1.50595e-06
6.25496e-07
1.51644e-06
5.9482e-07
1.50812e-06
5.46251e-07
1.516e-06
4.93835e-07
1.51873e-06
4.72537e-07
1.51876e-06
4.33013e-07
1.50791e-06
3.20117e-07
1.49909e-06
2.20814e-07
1.48049e-06
1.54852e-07
7.7818e-08
1.46013e-06
1.62618e-06
-1.00484e-06
1.66422e-06
1.90307e-06
1.51264e-06
-7.3355e-07
1.57438e-06
-1.6302e-06
1.69422e-06
-1.89645e-07
1.67839e-06
1.19004e-06
1.60307e-06
9.4956e-08
1.59651e-06
3.32417e-08
1.54835e-06
2.92001e-07
1.57389e-06
5.34319e-07
1.5852e-06
6.14184e-07
1.59233e-06
5.87693e-07
1.58913e-06
5.49452e-07
1.59357e-06
4.89395e-07
1.59734e-06
4.68765e-07
1.59863e-06
4.31726e-07
1.58858e-06
3.30171e-07
1.57773e-06
2.31663e-07
1.55876e-06
1.73817e-07
1.0063e-07
1.53595e-06
1.68767e-06
-1.07238e-06
1.74776e-06
1.84298e-06
1.59337e-06
-5.79167e-07
1.62611e-06
-1.66293e-06
1.75457e-06
-3.18108e-07
1.76867e-06
1.17594e-06
1.68312e-06
1.80508e-07
1.65864e-06
5.77279e-08
1.62855e-06
3.22084e-07
1.64729e-06
5.15586e-07
1.66381e-06
5.97657e-07
1.67091e-06
5.80593e-07
1.6712e-06
5.49166e-07
1.67454e-06
4.8605e-07
1.67779e-06
4.6552e-07
1.67906e-06
4.30452e-07
1.66963e-06
3.39608e-07
1.65751e-06
2.43774e-07
1.63886e-06
1.92472e-07
1.24476e-07
1.61501e-06
1.74741e-06
-1.12221e-06
1.81584e-06
1.77455e-06
1.67859e-06
-4.41922e-07
1.6853e-06
-1.66963e-06
1.80806e-06
-4.40869e-07
1.84624e-06
1.13776e-06
1.76308e-06
2.63673e-07
1.72366e-06
9.71484e-08
1.70558e-06
3.40159e-07
1.72205e-06
4.99115e-07
1.73996e-06
5.79748e-07
1.74839e-06
5.72169e-07
1.75153e-06
5.46026e-07
1.75493e-06
4.82649e-07
1.75754e-06
4.62905e-07
1.7584e-06
4.29599e-07
1.74984e-06
3.48166e-07
1.73753e-06
2.56084e-07
1.72028e-06
2.09724e-07
1.47777e-07
1.69697e-06
1.80862e-06
-1.15211e-06
1.8776e-06
1.70558e-06
1.77012e-06
-3.34447e-07
1.75365e-06
-1.65316e-06
1.85754e-06
-5.44761e-07
1.91354e-06
1.08175e-06
1.84302e-06
3.34192e-07
1.79652e-06
1.4365e-07
1.78181e-06
3.54869e-07
1.79565e-06
4.85274e-07
1.81296e-06
5.62438e-07
1.82292e-06
5.62215e-07
1.82862e-06
5.40327e-07
1.83281e-06
4.78451e-07
1.83549e-06
4.60228e-07
1.83638e-06
4.28714e-07
1.82945e-06
3.5509e-07
1.81808e-06
2.67452e-07
1.80322e-06
2.24593e-07
1.69132e-07
1.78186e-06
1.8752e-06
-1.16357e-06
1.94182e-06
1.63896e-06
1.86655e-06
-2.59175e-07
1.83163e-06
-1.61824e-06
1.9088e-06
-6.21928e-07
1.97512e-06
1.01543e-06
1.92282e-06
3.86493e-07
1.87779e-06
1.88683e-07
1.86069e-06
3.71961e-07
1.86927e-06
4.76701e-07
1.88473e-06
5.46978e-07
1.89591e-06
5.51032e-07
1.90385e-06
5.32386e-07
1.90932e-06
4.72979e-07
1.91292e-06
4.5663e-07
1.91452e-06
4.27113e-07
1.90996e-06
3.5965e-07
1.90044e-06
2.76977e-07
1.88847e-06
2.36561e-07
1.87599e-07
1.87e-06
1.95008e-06
-1.1608e-06
2.01386e-06
1.57518e-06
1.96553e-06
-2.1084e-07
1.91887e-06
-1.57158e-06
1.96833e-06
-6.71388e-07
2.03699e-06
9.46765e-07
2.00301e-06
4.2048e-07
1.96548e-06
2.26207e-07
1.94485e-06
3.92598e-07
1.94681e-06
4.74733e-07
1.9598e-06
5.33993e-07
1.97159e-06
5.39245e-07
1.98115e-06
5.22821e-07
1.98782e-06
4.66306e-07
1.99276e-06
4.51693e-07
1.99539e-06
4.24483e-07
1.99337e-06
3.6167e-07
1.98608e-06
2.84265e-07
1.97698e-06
2.45665e-07
2.02792e-07
1.96179e-06
2.03416e-06
-1.14878e-06
2.09517e-06
1.51417e-06
2.06565e-06
-1.81322e-07
2.01419e-06
-1.52012e-06
2.04024e-06
-6.97436e-07
2.10477e-06
8.82229e-07
2.08495e-06
4.40305e-07
2.05736e-06
2.53797e-07
2.03543e-06
4.14525e-07
2.03221e-06
4.77948e-07
2.04311e-06
5.23094e-07
2.0548e-06
5.27564e-07
2.06501e-06
5.12605e-07
2.07213e-06
4.5919e-07
2.07809e-06
4.45735e-07
2.08147e-06
4.21101e-07
2.08146e-06
3.61678e-07
2.07623e-06
2.89497e-07
2.06951e-06
2.5238e-07
2.14816e-07
2.05749e-06
2.12673e-06
-1.13151e-06
2.18478e-06
1.45612e-06
2.16687e-06
-1.63412e-07
2.116e-06
-1.46925e-06
2.125e-06
-7.06435e-07
2.18176e-06
8.25463e-07
2.17038e-06
4.51683e-07
2.15223e-06
2.7195e-07
2.13241e-06
4.34345e-07
2.12721e-06
4.83151e-07
2.13728e-06
5.1302e-07
2.14837e-06
5.16476e-07
2.15824e-06
5.02733e-07
2.16471e-06
4.52723e-07
2.17085e-06
4.39598e-07
2.17433e-06
4.17613e-07
2.17536e-06
3.60657e-07
2.17163e-06
2.93226e-07
2.1666e-06
2.57405e-07
2.24107e-07
2.15731e-06
2.22649e-06
-1.11151e-06
2.28131e-06
1.4013e-06
2.27009e-06
-1.52192e-07
2.22286e-06
-1.42202e-06
2.22053e-06
-7.04099e-07
2.2687e-06
7.77291e-07
2.26105e-06
4.59334e-07
2.25034e-06
2.82658e-07
2.23526e-06
4.49421e-07
2.23115e-06
4.8727e-07
2.24177e-06
5.02396e-07
2.25209e-06
5.06154e-07
2.26102e-06
4.93805e-07
2.26602e-06
4.47717e-07
2.27148e-06
4.34142e-07
2.27448e-06
4.14609e-07
2.27553e-06
3.59608e-07
2.27268e-06
2.9608e-07
2.26868e-06
2.61402e-07
2.31266e-07
2.26152e-06
2.33239e-06
-1.09002e-06
2.384e-06
1.34969e-06
2.37652e-06
-1.44715e-07
2.33394e-06
-1.37943e-06
2.32422e-06
-6.94379e-07
2.36484e-06
7.36675e-07
2.35836e-06
4.6581e-07
2.35284e-06
2.88178e-07
2.34358e-06
4.58678e-07
2.34225e-06
4.88605e-07
2.35419e-06
4.90456e-07
2.36374e-06
4.96605e-07
2.37161e-06
4.85928e-07
2.37499e-06
4.44338e-07
2.37931e-06
4.29829e-07
2.3816e-06
4.12311e-07
2.38204e-06
3.5917e-07
2.3796e-06
2.98521e-07
2.37618e-06
2.64822e-07
2.36889e-07
2.37056e-06
2.44397e-06
-1.0676e-06
2.49282e-06
1.30084e-06
2.4873e-06
-1.39196e-07
2.44901e-06
-1.34114e-06
2.43431e-06
-6.79683e-07
2.4692e-06
7.01788e-07
2.46327e-06
4.71735e-07
2.46109e-06
2.90362e-07
2.45733e-06
4.62438e-07
2.45895e-06
4.86982e-07
2.47215e-06
4.7726e-07
2.48087e-06
4.8788e-07
2.48789e-06
4.78915e-07
2.49006e-06
4.42162e-07
2.49326e-06
4.2663e-07
2.49506e-06
4.10514e-07
2.49475e-06
3.59475e-07
2.49249e-06
3.00788e-07
2.48948e-06
2.67827e-07
2.41448e-07
2.48492e-06
2.56116e-06
-1.04446e-06
2.60806e-06
1.25394e-06
2.60331e-06
-1.34446e-07
2.56827e-06
-1.3061e-06
2.55012e-06
-6.6153e-07
2.58113e-06
6.7077e-07
2.5762e-06
4.76674e-07
2.57609e-06
2.90471e-07
2.57672e-06
4.61808e-07
2.58048e-06
4.8322e-07
2.59431e-06
4.63432e-07
2.60207e-06
4.80118e-07
2.60842e-06
4.72564e-07
2.6101e-06
4.40483e-07
2.61254e-06
4.2419e-07
2.61429e-06
4.08766e-07
2.61353e-06
3.60235e-07
2.61136e-06
3.02954e-07
2.60885e-06
2.70343e-07
2.45239e-07
2.60506e-06
2.68408e-06
-1.02072e-06
2.72999e-06
1.20804e-06
2.72517e-06
-1.29628e-07
2.69216e-06
-1.2731e-06
2.67168e-06
-6.41044e-07
2.70035e-06
6.42099e-07
2.69707e-06
4.79952e-07
2.69827e-06
2.89275e-07
2.70199e-06
4.58084e-07
2.70673e-06
4.78475e-07
2.72041e-06
4.49751e-07
2.72709e-06
4.73444e-07
2.73285e-06
4.66798e-07
2.73472e-06
4.38615e-07
2.73686e-06
4.22055e-07
2.73902e-06
4.066e-07
2.73829e-06
3.60962e-07
2.73625e-06
3.04998e-07
2.73439e-06
2.72207e-07
2.48382e-07
2.73124e-06
2.81295e-06
-9.96401e-07
2.85876e-06
1.16223e-06
2.85334e-06
-1.24214e-07
2.82121e-06
-1.24096e-06
2.79934e-06
-6.19175e-07
2.82674e-06
6.14699e-07
2.82559e-06
4.81099e-07
2.82762e-06
2.87243e-07
2.83331e-06
4.52396e-07
2.83801e-06
4.73778e-07
2.85091e-06
4.36847e-07
2.85654e-06
4.67818e-07
2.86167e-06
4.61663e-07
2.86421e-06
4.36075e-07
2.86644e-06
4.19833e-07
2.86928e-06
4.03753e-07
2.86909e-06
3.61153e-07
2.86723e-06
3.06866e-07
2.8661e-06
2.73333e-07
2.50846e-07
2.86364e-06
2.94801e-06
-9.71515e-07
2.9944e-06
1.11584e-06
2.98815e-06
-1.17966e-07
2.95597e-06
-1.20878e-06
2.93351e-06
-5.96714e-07
2.9603e-06
5.87905e-07
2.96144e-06
4.7996e-07
2.96397e-06
2.84715e-07
2.9708e-06
4.45569e-07
2.97478e-06
4.69795e-07
2.98655e-06
4.25074e-07
2.99138e-06
4.62987e-07
2.9958e-06
4.57247e-07
2.99925e-06
4.32625e-07
3.00182e-06
4.17264e-07
3.00534e-06
4.00231e-07
3.00608e-06
3.60413e-07
3.00445e-06
3.08496e-07
3.00398e-06
2.73804e-07
2.52505e-07
3.00232e-06
3.08955e-06
-9.46062e-07
3.13689e-06
1.0685e-06
3.12982e-06
-1.109e-07
3.09698e-06
-1.17594e-06
3.07454e-06
-5.74268e-07
3.10105e-06
5.61394e-07
3.10439e-06
4.76621e-07
3.10714e-06
2.81964e-07
3.11456e-06
4.38145e-07
3.11757e-06
4.66791e-07
3.1281e-06
4.14546e-07
3.13255e-06
4.5853e-07
3.13619e-06
4.53607e-07
3.14059e-06
4.28231e-07
3.14363e-06
4.14215e-07
3.14763e-06
3.96237e-07
3.14947e-06
3.58568e-07
3.14821e-06
3.09764e-07
3.14812e-06
2.73891e-07
2.53233e-07
3.14739e-06
3.23791e-06
-9.2006e-07
3.28627e-06
1.02015e-06
3.27857e-06
-1.03207e-07
3.24474e-06
-1.14211e-06
3.22273e-06
-5.52255e-07
3.24902e-06
5.35109e-07
3.25434e-06
4.71298e-07
3.25711e-06
2.79192e-07
3.26481e-06
4.30441e-07
3.2669e-06
4.64702e-07
3.27622e-06
4.05223e-07
3.28076e-06
4.53993e-07
3.28364e-06
4.50724e-07
3.28888e-06
4.22996e-07
3.29247e-06
4.10627e-07
3.29665e-06
3.92058e-07
3.29955e-06
3.55663e-07
3.29881e-06
3.10508e-07
3.29878e-06
2.73916e-07
2.53039e-07
3.29898e-06
3.39342e-06
-8.9355e-07
3.44266e-06
9.70908e-07
3.43461e-06
-9.51618e-08
3.39969e-06
-1.10719e-06
3.37837e-06
-5.30933e-07
3.40431e-06
5.09169e-07
3.41134e-06
4.64266e-07
3.41404e-06
2.765e-07
3.42185e-06
4.22628e-07
3.42329e-06
4.63266e-07
3.43151e-06
3.96999e-07
3.43651e-06
4.48992e-07
3.43873e-06
4.48502e-07
3.44461e-06
4.17121e-07
3.44879e-06
4.06443e-07
3.45289e-06
3.87958e-07
3.45661e-06
3.51944e-07
3.45662e-06
3.10504e-07
3.4564e-06
2.74128e-07
2.52164e-07
3.45728e-06
3.55646e-06
-8.666e-07
3.60632e-06
9.21047e-07
3.5982e-06
-8.70445e-08
3.56221e-06
-1.07119e-06
3.54174e-06
-5.10456e-07
3.56714e-06
4.83762e-07
3.57559e-06
4.55818e-07
3.57821e-06
2.73882e-07
3.58604e-06
4.14792e-07
3.58717e-06
4.62143e-07
3.59442e-06
3.89746e-07
3.60014e-06
4.43276e-07
3.60185e-06
4.4679e-07
3.60812e-06
4.1085e-07
3.61295e-06
4.01608e-07
3.61683e-06
3.84083e-07
3.62102e-06
3.47753e-07
3.62195e-06
3.0957e-07
3.62151e-06
2.74572e-07
2.51052e-07
3.62262e-06
3.7274e-06
-8.3929e-07
3.77759e-06
8.70854e-07
3.76965e-06
-7.91039e-08
3.73266e-06
-1.03421e-06
3.71312e-06
-4.90906e-07
3.73782e-06
4.59058e-07
3.74738e-06
4.46253e-07
3.75002e-06
2.7125e-07
3.75783e-06
4.06976e-07
3.75895e-06
4.6102e-07
3.76537e-06
3.83335e-07
3.77189e-06
4.36747e-07
3.77329e-06
4.45391e-07
3.77965e-06
4.04496e-07
3.78522e-06
3.9603e-07
3.78884e-06
3.80467e-07
3.79315e-06
3.43449e-07
3.7951e-06
3.0762e-07
3.79461e-06
2.75057e-07
2.50203e-07
3.79546e-06
3.9066e-06
-8.11706e-07
3.95685e-06
8.20605e-07
3.94929e-06
-7.15427e-08
3.91141e-06
-9.96324e-07
3.89281e-06
-4.72315e-07
3.91672e-06
4.3515e-07
3.9271e-06
4.35872e-07
3.92989e-06
2.68467e-07
3.93767e-06
3.9919e-07
3.93902e-06
4.5967e-07
3.94471e-06
3.77648e-07
3.95205e-06
4.29408e-07
3.95332e-06
4.4412e-07
3.95946e-06
3.98352e-07
3.96582e-06
3.8967e-07
3.96929e-06
3.76995e-07
3.9734e-06
3.39347e-07
3.97627e-06
3.04742e-07
3.97614e-06
2.75193e-07
2.49964e-07
3.97638e-06
4.09447e-06
-7.83927e-07
4.14453e-06
7.70548e-07
4.13751e-06
-6.45229e-08
4.09881e-06
-9.57624e-07
4.08116e-06
-4.54667e-07
4.10427e-06
4.12037e-07
4.11517e-06
4.24971e-07
4.11826e-06
2.65387e-07
4.12604e-06
3.91405e-07
4.12774e-06
4.57968e-07
4.13281e-06
3.72581e-07
4.14089e-06
4.21332e-07
4.14221e-06
4.42793e-07
4.14785e-06
3.92714e-07
4.155e-06
3.82521e-07
4.15849e-06
3.73504e-07
4.16218e-06
3.3566e-07
4.16575e-06
3.01173e-07
4.16635e-06
2.7459e-07
2.50281e-07
4.16604e-06
4.2914e-06
-7.56021e-07
4.34104e-06
7.20905e-07
4.33469e-06
-5.8172e-08
4.29528e-06
-9.18211e-07
4.27851e-06
-4.379e-07
4.30092e-06
3.89625e-07
4.31205e-06
4.1384e-07
4.31555e-06
2.61887e-07
4.32341e-06
3.83542e-07
4.32551e-06
4.55868e-07
4.33003e-06
3.68064e-07
4.33877e-06
4.12592e-07
4.34028e-06
4.4128e-07
4.34521e-06
3.87787e-07
4.35304e-06
3.74691e-07
4.35672e-06
3.69819e-07
4.35991e-06
3.32476e-07
4.36386e-06
2.97217e-07
4.36547e-06
2.7298e-07
2.50782e-07
4.36497e-06
4.49779e-06
-7.2804e-07
4.54683e-06
6.7187e-07
4.54124e-06
-5.25805e-08
4.50125e-06
-8.78221e-07
4.48525e-06
-4.21901e-07
4.50712e-06
3.67747e-07
4.51822e-06
4.02746e-07
4.52219e-06
2.57911e-07
4.53026e-06
3.75474e-07
4.53276e-06
4.53371e-07
4.53676e-06
3.64062e-07
4.54609e-06
4.03259e-07
4.54792e-06
4.39451e-07
4.55197e-06
3.83734e-07
4.56028e-06
3.66388e-07
4.56432e-06
3.65773e-07
4.567e-06
3.29803e-07
4.57106e-06
2.93153e-07
4.57369e-06
2.7035e-07
2.50869e-07
4.57361e-06
4.7141e-06
-7.00024e-07
4.76235e-06
6.23616e-07
4.75756e-06
-4.7791e-08
4.71718e-06
-8.3784e-07
4.70178e-06
-4.06501e-07
4.72334e-06
3.46191e-07
4.73418e-06
3.91908e-07
4.73859e-06
2.53495e-07
4.74704e-06
3.67029e-07
4.74993e-06
4.50482e-07
4.7534e-06
3.60588e-07
4.76329e-06
3.93375e-07
4.76557e-06
4.37172e-07
4.76864e-06
3.80658e-07
4.77718e-06
3.57852e-07
4.78176e-06
3.61196e-07
4.78392e-06
3.27634e-07
4.78792e-06
2.89162e-07
4.79136e-06
2.66902e-07
2.50027e-07
4.79221e-06
4.94078e-06
-6.72003e-07
4.98811e-06
5.76279e-07
4.98409e-06
-4.37729e-08
4.94359e-06
-7.97333e-07
4.92858e-06
-3.91489e-07
4.95003e-06
3.24737e-07
4.96047e-06
3.81468e-07
4.96519e-06
2.48773e-07
4.9742e-06
3.58021e-07
4.97751e-06
4.47169e-07
4.9804e-06
3.57696e-07
4.99081e-06
3.82964e-07
4.99369e-06
4.34294e-07
4.99573e-06
3.78618e-07
5.00427e-06
3.49318e-07
5.0096e-06
3.55864e-07
5.01127e-06
3.25963e-07
5.01501e-06
2.85415e-07
5.01899e-06
2.6293e-07
2.48027e-07
5.02099e-06
5.1783e-06
-6.43991e-07
5.22463e-06
5.29954e-07
5.22126e-06
-4.04083e-08
5.18097e-06
-7.57043e-07
5.16611e-06
-3.76629e-07
5.18765e-06
3.03205e-07
5.19766e-06
3.71458e-07
5.20246e-06
2.43971e-07
5.21217e-06
3.48307e-07
5.21601e-06
4.43329e-07
5.21825e-06
3.55462e-07
5.22911e-06
3.72099e-07
5.23281e-06
4.30595e-07
5.23383e-06
3.776e-07
5.24206e-06
3.41091e-07
5.24836e-06
3.49563e-07
5.24965e-06
3.24674e-07
5.25294e-06
2.82123e-07
5.25721e-06
2.58658e-07
2.45005e-07
5.26023e-06
5.42719e-06
-6.1599e-07
5.47247e-06
4.84668e-07
5.46952e-06
-3.74534e-08
5.42989e-06
-7.17409e-07
5.41494e-06
-3.61682e-07
5.43665e-06
2.81489e-07
5.44637e-06
3.61741e-07
5.45095e-06
2.39397e-07
5.46142e-06
3.37832e-07
5.46595e-06
4.38802e-07
5.46749e-06
3.5392e-07
5.47864e-06
3.60954e-07
5.48345e-06
4.25785e-07
5.48354e-06
3.77506e-07
5.49115e-06
3.33486e-07
5.49854e-06
3.42171e-07
5.49972e-06
3.23493e-07
5.50223e-06
2.79615e-07
5.50665e-06
2.54238e-07
2.41169e-07
5.51048e-06
5.68796e-06
-5.87989e-07
5.73224e-06
4.40384e-07
5.72933e-06
-3.45382e-08
5.69089e-06
-6.78968e-07
5.67562e-06
-3.46421e-07
5.69753e-06
2.59582e-07
5.70723e-06
3.52041e-07
5.71126e-06
2.35367e-07
5.72241e-06
3.26679e-07
5.72785e-06
4.33364e-07
5.72871e-06
3.53064e-07
5.73987e-06
3.49791e-07
5.74611e-06
4.19547e-07
5.74544e-06
3.78169e-07
5.75211e-06
3.2682e-07
5.76063e-06
3.33656e-07
5.76209e-06
3.22028e-07
5.76355e-06
2.78155e-07
5.7679e-06
2.4989e-07
2.36666e-07
5.7724e-06
5.96116e-06
-5.59958e-07
6.00456e-06
3.96989e-07
6.00118e-06
-3.11659e-08
5.96456e-06
-6.42348e-07
5.94878e-06
-3.30641e-07
5.9708e-06
2.37569e-07
5.98082e-06
3.42018e-07
5.98406e-06
2.32128e-07
5.99568e-06
3.15056e-07
6.00225e-06
4.26799e-07
6.0025e-06
3.52817e-07
6.01337e-06
3.38913e-07
6.02127e-06
4.11656e-07
6.02017e-06
3.79266e-07
6.02557e-06
3.21417e-07
6.03508e-06
3.24145e-07
6.0373e-06
3.19814e-07
6.03769e-06
2.77762e-07
6.04159e-06
2.45987e-07
2.31678e-07
6.04658e-06
6.24739e-06
-5.31857e-07
6.29006e-06
3.54316e-07
6.28569e-06
-2.68012e-08
6.25153e-06
-6.08187e-07
6.23508e-06
-3.14185e-07
6.25684e-06
2.15803e-07
6.26768e-06
3.31181e-07
6.27003e-06
2.29775e-07
6.28182e-06
3.03264e-07
6.28967e-06
4.18958e-07
6.28947e-06
3.53012e-07
6.29976e-06
3.28621e-07
6.30939e-06
4.02023e-07
6.3083e-06
3.80362e-07
6.31222e-06
3.175e-07
6.32239e-06
3.13971e-07
6.32581e-06
3.16388e-07
6.3254e-06
2.78176e-07
6.32837e-06
2.43013e-07
2.26432e-07
6.33362e-06
6.54725e-06
-5.03641e-07
6.58941e-06
3.12161e-07
6.58378e-06
-2.11715e-08
6.55242e-06
-5.76831e-07
6.53532e-06
-2.97081e-07
6.55615e-06
1.94977e-07
6.56829e-06
3.19037e-07
6.56989e-06
2.28171e-07
6.58149e-06
2.91666e-07
6.59064e-06
4.09805e-07
6.59024e-06
3.53416e-07
6.5997e-06
3.19164e-07
6.61096e-06
3.90758e-07
6.61044e-06
3.8089e-07
6.61268e-06
3.15256e-07
6.62303e-06
3.03621e-07
6.6281e-06
3.11315e-07
6.62735e-06
2.7893e-07
6.62909e-06
2.41273e-07
2.21362e-07
6.63416e-06
6.86142e-06
-4.75275e-07
6.90326e-06
2.70327e-07
6.89634e-06
-1.42539e-08
6.8676e-06
-5.48095e-07
6.85042e-06
-2.79899e-07
6.86943e-06
1.75972e-07
6.8831e-06
3.05366e-07
6.88434e-06
2.26932e-07
6.89539e-06
2.80616e-07
6.90577e-06
3.99425e-07
6.90542e-06
3.53764e-07
6.91387e-06
3.10716e-07
6.92655e-06
3.78074e-07
6.92711e-06
3.80329e-07
6.92765e-06
3.14715e-07
6.93759e-06
2.93687e-07
6.94459e-06
3.04311e-07
6.94411e-06
2.79414e-07
6.94463e-06
2.40749e-07
2.17035e-07
6.94896e-06
7.19061e-06
-4.46744e-07
7.23225e-06
2.28681e-07
7.2242e-06
-6.1988e-09
7.19729e-06
-5.21192e-07
7.18114e-06
-2.63748e-07
7.1976e-06
1.59516e-07
7.21258e-06
2.90379e-07
7.21402e-06
2.25494e-07
7.22427e-06
2.70372e-07
7.23567e-06
3.88021e-07
7.23562e-06
3.53817e-07
7.24295e-06
3.03381e-07
7.25674e-06
3.64281e-07
7.25887e-06
3.78205e-07
7.25789e-06
3.15692e-07
7.26674e-06
2.84841e-07
7.27572e-06
2.95325e-07
7.27619e-06
2.78947e-07
7.27572e-06
2.41219e-07
2.1379e-07
7.27897e-06
7.53555e-06
-4.18068e-07
7.57704e-06
1.8719e-07
7.56817e-06
2.67295e-09
7.54187e-06
-4.9489e-07
7.52806e-06
-2.49946e-07
7.54161e-06
1.4597e-07
7.55734e-06
2.74646e-07
7.55957e-06
2.23269e-07
7.56887e-06
2.61065e-07
7.58102e-06
3.75878e-07
7.58146e-06
3.53372e-07
7.58761e-06
2.97229e-07
7.6022e-06
3.49691e-07
7.60622e-06
3.74194e-07
7.60419e-06
3.1772e-07
7.61135e-06
2.7768e-07
7.62191e-06
2.84765e-07
7.62406e-06
2.76797e-07
7.62299e-06
2.42285e-07
2.11751e-07
7.62503e-06
7.89705e-06
-3.89306e-07
7.9383e-06
1.45943e-07
7.9291e-06
1.18716e-08
7.90204e-06
-4.67834e-07
7.89172e-06
-2.39622e-07
7.90249e-06
1.35199e-07
7.91813e-06
2.59003e-07
7.92155e-06
2.19851e-07
7.92997e-06
2.52647e-07
7.94247e-06
3.63374e-07
7.94358e-06
3.52264e-07
7.94854e-06
2.92267e-07
7.96355e-06
3.34687e-07
7.96962e-06
3.68118e-07
7.96727e-06
3.20075e-07
7.97233e-06
2.7262e-07
7.98369e-06
2.73405e-07
7.98812e-06
2.72365e-07
7.98706e-06
2.4335e-07
2.10882e-07
7.98792e-06
8.27594e-06
-3.6057e-07
8.31669e-06
1.05198e-07
8.30785e-06
2.07094e-08
8.27873e-06
-4.38714e-07
8.2727e-06
-2.33589e-07
8.28167e-06
1.2623e-07
8.29587e-06
2.44801e-07
8.30035e-06
2.1537e-07
8.30815e-06
2.44848e-07
8.3207e-06
3.5082e-07
8.3226e-06
3.50364e-07
8.32644e-06
2.88428e-07
8.34143e-06
3.19701e-07
8.34962e-06
3.59929e-07
8.34772e-06
3.21976e-07
8.35065e-06
2.69683e-07
8.36185e-06
2.62213e-07
8.36877e-06
2.65437e-07
8.36845e-06
2.43676e-07
2.10904e-07
8.36843e-06
8.67312e-06
-3.32028e-07
8.71279e-06
6.5527e-08
8.70523e-06
2.82654e-08
8.67298e-06
-4.06461e-07
8.67084e-06
-2.31444e-07
8.67809e-06
1.18971e-07
8.69039e-06
2.32508e-07
8.69624e-06
2.09516e-07
8.704e-06
2.37088e-07
8.71644e-06
3.38379e-07
8.71921e-06
3.47598e-07
8.722e-06
2.8564e-07
8.7366e-06
3.05099e-07
8.74686e-06
3.49668e-07
8.74611e-06
3.22733e-07
8.74732e-06
2.68471e-07
8.75738e-06
2.52147e-07
8.7665e-06
2.56321e-07
8.76772e-06
2.42459e-07
2.11326e-07
8.76729e-06
9.08949e-06
-3.039e-07
9.12733e-06
2.76873e-08
9.12206e-06
3.35388e-08
9.08623e-06
-3.7063e-07
9.08659e-06
-2.31806e-07
9.0943e-06
1.11264e-07
9.10396e-06
2.22841e-07
9.11042e-06
2.03055e-07
9.11833e-06
2.29178e-07
9.13056e-06
3.26155e-07
9.13426e-06
3.43898e-07
9.13607e-06
2.8383e-07
9.14989e-06
2.91274e-07
9.16213e-06
3.37426e-07
9.16309e-06
3.21775e-07
9.16327e-06
2.6829e-07
9.17153e-06
2.43894e-07
9.18203e-06
2.45813e-07
9.18536e-06
2.39131e-07
2.11488e-07
9.1852e-06
9.52601e-06
-2.76455e-07
9.56128e-06
-7.58032e-09
9.55915e-06
3.56752e-08
9.52049e-06
-3.31979e-07
9.52135e-06
-2.32665e-07
9.53086e-06
1.01758e-07
9.53758e-06
2.16118e-07
9.54356e-06
1.97076e-07
9.55194e-06
2.20798e-07
9.56412e-06
3.13981e-07
9.56882e-06
3.3919e-07
9.56987e-06
2.82784e-07
9.58235e-06
2.78796e-07
9.59635e-06
3.23427e-07
9.59947e-06
3.18649e-07
9.59942e-06
2.68338e-07
9.60557e-06
2.3775e-07
9.61647e-06
2.34909e-07
9.62199e-06
2.33613e-07
2.10713e-07
9.62276e-06
9.98369e-06
-2.50008e-07
1.00157e-05
-3.9567e-08
1.00174e-05
3.3978e-08
9.97681e-06
-2.91417e-07
9.97584e-06
-2.31698e-07
9.98835e-06
8.9247e-08
9.99267e-06
2.11803e-07
9.99684e-06
1.92903e-07
1.00057e-05
2.11917e-07
1.00183e-05
3.01437e-07
1.00241e-05
3.33384e-07
1.00247e-05
2.82203e-07
1.00353e-05
2.68121e-07
1.00505e-05
3.08208e-07
1.00562e-05
3.13026e-07
1.00566e-05
2.67912e-07
1.00608e-05
2.33538e-07
1.00711e-05
2.24593e-07
1.00785e-05
2.26224e-07
2.08609e-07
1.00806e-05
1.04636e-05
-2.2492e-07
1.04916e-05
-6.76229e-08
1.04975e-05
2.80463e-08
1.04561e-05
-2.50016e-07
1.04513e-05
-2.2684e-07
1.04676e-05
7.29642e-08
1.04707e-05
2.0867e-07
1.0472e-05
1.91647e-07
1.04806e-05
2.03294e-07
1.04941e-05
2.87915e-07
1.05012e-05
3.26239e-07
1.05017e-05
2.81749e-07
1.05102e-05
2.59578e-07
1.0526e-05
2.92426e-07
1.05341e-05
3.04965e-07
1.05356e-05
2.66409e-07
1.05384e-05
2.30681e-07
1.05474e-05
2.15641e-07
1.0556e-05
2.17567e-07
2.05009e-07
1.05596e-05
1.09667e-05
-2.01554e-07
1.09902e-05
-9.11881e-08
1.10005e-05
1.78098e-08
1.09594e-05
-2.08994e-07
1.09493e-05
-2.16675e-07
1.09691e-05
5.31537e-08
1.09729e-05
2.04841e-07
1.09709e-05
1.9363e-07
1.09779e-05
1.96318e-07
1.09925e-05
2.73277e-07
1.10014e-05
3.17375e-07
1.10023e-05
2.80867e-07
1.10086e-05
2.53221e-07
1.10241e-05
2.76948e-07
1.10342e-05
2.94852e-07
1.10372e-05
2.63432e-07
1.10395e-05
2.2841e-07
1.10467e-05
2.08446e-07
1.10559e-05
2.08362e-07
1.99931e-07
1.1061e-05
1.14941e-05
-1.80262e-07
1.15127e-05
-1.09777e-07
1.15269e-05
3.55668e-09
1.14877e-05
-1.69759e-07
1.1472e-05
-2.00955e-07
1.14933e-05
3.17792e-08
1.14999e-05
1.98226e-07
1.14955e-05
1.98089e-07
1.14996e-05
1.92238e-07
1.15146e-05
2.58259e-07
1.15254e-05
3.06514e-07
1.15273e-05
2.78968e-07
1.15319e-05
2.48679e-07
1.15462e-05
2.62639e-07
1.15578e-05
2.83202e-07
1.15624e-05
2.5886e-07
1.15648e-05
2.26023e-07
1.15704e-05
2.02835e-07
1.15793e-05
1.99495e-07
1.93481e-07
1.15857e-05
1.20469e-05
-1.61339e-07
1.20602e-05
-1.23072e-07
1.20776e-05
-1.38718e-08
1.20419e-05
-1.34029e-07
1.2021e-05
-1.80084e-07
1.20412e-05
1.15555e-08
1.20522e-05
1.87229e-07
1.20467e-05
2.03614e-07
1.20473e-05
1.91612e-07
1.20615e-05
2.44073e-07
1.20743e-05
2.93761e-07
1.20777e-05
2.75526e-07
1.20811e-05
2.4529e-07
1.20936e-05
2.50104e-07
1.21062e-05
2.70601e-07
1.21123e-05
2.52765e-07
1.21153e-05
2.23073e-07
1.21199e-05
1.98208e-07
1.21278e-05
1.91622e-07
1.86125e-07
1.21351e-05
1.26262e-05
-1.44954e-07
1.26342e-05
-1.31033e-07
1.26535e-05
-3.31709e-08
1.26229e-05
-1.03451e-07
1.25978e-05
-1.55031e-07
1.2614e-05
-4.58729e-09
1.263e-05
1.71166e-07
1.26254e-05
2.08302e-07
1.26228e-05
1.94196e-07
1.26349e-05
2.31898e-07
1.2649e-05
2.79713e-07
1.26544e-05
2.70077e-07
1.26573e-05
2.42418e-07
1.26679e-05
2.39467e-07
1.26808e-05
2.57764e-07
1.26882e-05
2.45319e-07
1.26919e-05
2.19381e-07
1.26962e-05
1.93953e-07
1.2703e-05
1.84831e-07
1.78592e-07
1.27105e-05
1.32331e-05
-1.31138e-07
1.32358e-05
-1.33692e-07
1.32555e-05
-5.29307e-08
1.32315e-05
-7.93671e-08
1.32036e-05
-1.27141e-07
1.32133e-05
-1.43306e-08
1.32335e-05
1.50959e-07
1.3232e-05
2.09861e-07
1.32272e-05
1.98992e-07
1.32365e-05
2.22594e-07
1.3251e-05
2.65215e-07
1.32585e-05
2.62528e-07
1.32615e-05
2.39381e-07
1.32705e-05
2.30514e-07
1.32829e-05
2.45351e-07
1.32915e-05
2.36756e-07
1.3296e-05
2.14889e-07
1.33002e-05
1.89749e-07
1.33062e-05
1.78759e-07
1.71471e-07
1.33134e-05
1.38688e-05
-1.19769e-07
1.38671e-05
-1.32044e-07
1.38856e-05
-7.13955e-08
1.38683e-05
-6.2086e-08
1.38391e-05
-9.79314e-08
1.38416e-05
-1.67716e-08
1.38634e-05
1.29113e-07
1.3867e-05
2.06249e-07
1.38615e-05
2.04482e-07
1.38678e-05
2.16305e-07
1.38818e-05
2.51264e-07
1.38911e-05
2.5324e-07
1.38949e-05
2.35499e-07
1.39026e-05
2.22904e-07
1.39142e-05
2.33731e-07
1.39234e-05
2.27499e-07
1.39288e-05
2.09505e-07
1.3933e-05
1.85516e-07
1.39388e-05
1.73035e-07
1.64876e-07
1.39454e-05
1.45344e-05
-1.10536e-07
1.45289e-05
-1.26477e-07
1.45448e-05
-8.73658e-08
1.45342e-05
-5.14425e-08
1.45057e-05
-6.94058e-08
1.45013e-05
-1.24212e-08
1.45217e-05
1.08745e-07
1.45311e-05
1.96816e-07
1.45269e-05
2.08731e-07
1.45305e-05
2.12624e-07
1.4543e-05
2.38805e-07
1.45535e-05
2.42711e-07
1.45587e-05
2.3038e-07
1.45654e-05
2.16157e-07
1.45761e-05
2.23078e-07
1.45856e-05
2.17976e-07
1.45918e-05
2.03284e-07
1.45962e-05
1.81075e-07
1.46017e-05
1.67565e-07
1.5858e-07
1.4608e-05
1.52314e-05
-1.03036e-07
1.52234e-05
-1.18513e-07
1.52354e-05
-9.9372e-08
1.523e-05
-4.60653e-08
1.52043e-05
-4.36164e-08
1.51947e-05
-2.81974e-09
1.52108e-05
9.26011e-08
1.52251e-05
1.8248e-07
1.52242e-05
2.09683e-07
1.52259e-05
2.10889e-07
1.52364e-05
2.28335e-07
1.52475e-05
2.31604e-07
1.52539e-05
2.23965e-07
1.52604e-05
2.09701e-07
1.527e-05
2.13406e-07
1.52795e-05
2.08505e-07
1.52864e-05
1.9642e-07
1.52912e-05
1.76202e-07
1.52964e-05
1.62378e-07
1.52361e-07
1.53027e-05
1.59611e-05
-9.67866e-08
1.59517e-05
-1.09162e-07
1.59588e-05
-1.064e-07
1.59573e-05
-4.46388e-08
1.5936e-05
-2.22853e-08
1.59233e-05
9.85256e-09
1.59337e-05
8.22077e-08
1.59506e-05
1.65567e-07
1.59542e-05
2.0608e-07
1.59553e-05
2.09848e-07
1.59637e-05
2.19923e-07
1.59746e-05
2.20727e-07
1.59821e-05
2.16404e-07
1.59887e-05
2.03097e-07
1.59977e-05
2.04486e-07
1.60068e-05
1.99328e-07
1.60141e-05
1.89149e-07
1.60195e-05
1.70814e-07
1.60245e-05
1.57353e-07
1.46284e-07
1.60306e-05
1.67251e-05
-9.12567e-08
1.67138e-05
-9.7915e-08
1.6716e-05
-1.08588e-07
1.67178e-05
-4.6474e-08
1.67021e-05
-6.49985e-09
1.66885e-05
2.34098e-08
1.66934e-05
7.7317e-08
1.67099e-05
1.49052e-07
1.67179e-05
1.98132e-07
1.672e-05
2.07752e-07
1.67265e-05
2.13426e-07
1.67365e-05
2.10638e-07
1.67449e-05
2.08041e-07
1.67519e-05
1.961e-07
1.67604e-05
1.95988e-07
1.67692e-05
1.90512e-07
1.67766e-05
1.81735e-07
1.67825e-05
1.64969e-07
1.67875e-05
1.52295e-07
1.40481e-07
1.67933e-05
1.75252e-05
-8.61008e-08
1.75152e-05
-8.79157e-08
1.7512e-05
-1.05346e-07
1.75142e-05
-4.86782e-08
1.75038e-05
3.91453e-09
1.7491e-05
3.61556e-08
1.74917e-05
7.66716e-08
1.75056e-05
1.35054e-07
1.75166e-05
1.87135e-07
1.7521e-05
2.03359e-07
1.75263e-05
2.08197e-07
1.75353e-05
2.01647e-07
1.75439e-05
1.99358e-07
1.75514e-05
1.88665e-07
1.75597e-05
1.87641e-07
1.75683e-05
1.81938e-07
1.75757e-05
1.74359e-07
1.75819e-05
1.58789e-07
1.75871e-05
1.47097e-07
1.34931e-07
1.75926e-05
1.83632e-05
-8.09671e-08
1.83542e-05
-7.89072e-08
1.83475e-05
-9.85944e-08
1.83488e-05
-5.00656e-08
1.83428e-05
9.91609e-09
1.8332e-05
4.70358e-08
1.83298e-05
7.88117e-08
1.83403e-05
1.24605e-07
1.83527e-05
1.74659e-07
1.83597e-05
1.96433e-07
1.83648e-05
2.03095e-07
1.83725e-05
1.9393e-07
1.83811e-05
1.90737e-07
1.83889e-05
1.80882e-07
1.83972e-05
1.7937e-07
1.84057e-05
1.73406e-07
1.8413e-05
1.6703e-07
1.84194e-05
1.52446e-07
1.84248e-05
1.41649e-07
1.29529e-07
1.84302e-05
1.92411e-05
-7.56648e-08
1.92333e-05
-7.11669e-08
1.92242e-05
-8.94878e-08
1.92239e-05
-4.97705e-08
1.92212e-05
1.26766e-08
1.92128e-05
5.54539e-08
1.92091e-05
8.24758e-08
1.92161e-05
1.17586e-07
1.92284e-05
1.62344e-07
1.92375e-05
1.87381e-07
1.92434e-05
1.97163e-07
1.92501e-05
1.87221e-07