/*--------------------------------*- C++ -*----------------------------------*\
| =========                 |                                                 |
| \\      /  F ield         | OpenFOAM: The Open Source CFD Toolbox           |
|  \\    /   O peration     | Version:  2506                                  |
|   \\  /    A nd           | Website:  www.openfoam.com                      |
|    \\/     M anipulation  |                                                 |
\*---------------------------------------------------------------------------*/
FoamFile
{
    version     2.0;
    format      ascii;
    arch        "LSB;label=32;scalar=64";
    class       volVectorField;
    location    "4.85";
    object      U;
}
// * * * * * * * * * * * * * * * * * * * * * * * * * * * * * * * * * * * * * //

dimensions      [0 1 -1 0 0 0 0];

internalField   nonuniform List<vector> 
9600
(
(0.685242 -0.00469021 0)
(1.40253 0.0143759 0)
(0.413307 -0.0147414 0)
(1.31155 -0.00688719 0)
(0.879035 0.00305432 0)
(1.28828 0.00719538 0)
(0.634639 0.000173938 0)
(1.29477 0.000394471 0)
(0.665781 7.53733e-05 0)
(1.22001 0.0184868 0)
(0.788103 0.0135576 0)
(1.18868 0.0171975 0)
(0.818612 0.0130354 0)
(1.16506 0.0190459 0)
(0.877341 0.0133569 0)
(1.12934 0.0157871 0)
(0.876642 0.00921568 0)
(1.11403 0.00859472 0)
(0.854334 0.00192909 0)
(1.11197 0.00101338 0)
(0.69171 -0.00559354 0)
(1.39815 0.0164278 0)
(0.455593 -0.0143701 0)
(1.30023 -0.0112273 0)
(0.884145 0.00247799 0)
(1.28748 0.0101654 0)
(0.651786 -0.000489043 0)
(1.29072 0.000465551 0)
(0.678162 0.00051541 0)
(1.21325 0.0177979 0)
(0.806855 0.013454 0)
(1.1747 0.0172411 0)
(0.849619 0.0131628 0)
(1.13616 0.0182813 0)
(0.925305 0.0137726 0)
(1.0823 0.0158406 0)
(0.948326 0.00969902 0)
(1.04084 0.00888062 0)
(0.960342 0.0026561 0)
(0.999193 0.00099355 0)
(0.705617 -0.00639991 0)
(1.38831 0.0186574 0)
(0.525688 -0.0141701 0)
(1.27361 -0.0139916 0)
(0.896787 0.00235602 0)
(1.28356 0.0128223 0)
(0.691603 -0.000918414 0)
(1.27711 0.000767082 0)
(0.718931 0.00103493 0)
(1.18683 0.0164223 0)
(0.854358 0.0136587 0)
(1.13798 0.0169215 0)
(0.908797 0.0135505 0)
(1.08719 0.0170499 0)
(0.981522 0.014748 0)
(1.03993 0.0155165 0)
(0.994653 0.0107311 0)
(1.01015 0.00845717 0)
(0.99116 0.0042094 0)
(0.986151 0.00106048 0)
(0.728259 -0.00718692 0)
(1.37012 0.0201636 0)
(0.620178 -0.0136482 0)
(1.22844 -0.0163774 0)
(0.918521 0.00185332 0)
(1.27196 0.0149426 0)
(0.756519 -0.00111696 0)
(1.24574 0.000893111 0)
(0.789825 0.00179472 0)
(1.13828 0.0148504 0)
(0.916451 0.0141556 0)
(1.0918 0.0162255 0)
(0.964411 0.0141796 0)
(1.04777 0.0159899 0)
(1.01274 0.0154231 0)
(1.02533 0.0154209 0)
(1.01126 0.0113275 0)
(1.00864 0.00857608 0)
(0.998735 0.00501229 0)
(0.990718 0.00175081 0)
(0.760385 -0.0080433 0)
(1.34052 0.0210504 0)
(0.72808 -0.0126859 0)
(1.16696 -0.0183891 0)
(0.948014 0.000953207 0)
(1.24959 0.0166404 0)
(0.838724 -0.000891694 0)
(1.19656 0.000726801 0)
(0.871457 0.00294526 0)
(1.08306 0.013411 0)
(0.969201 0.0145767 0)
(1.05636 0.0155996 0)
(0.999267 0.0147438 0)
(1.02934 0.015327 0)
(1.02407 0.0156353 0)
(1.02557 0.0154774 0)
(1.01977 0.0118343 0)
(1.01337 0.00881122 0)
(1.00496 0.00587572 0)
(0.995206 0.00248602 0)
(0.800818 -0.00892237 0)
(1.29803 0.0213921 0)
(0.831999 -0.0112896 0)
(1.09853 -0.0199041 0)
(0.979378 -0.000271683 0)
(1.21783 0.0177874 0)
(0.921437 -0.000198867 0)
(1.13958 0.000472299 0)
(0.938621 0.00426553 0)
(1.04108 0.0123342 0)
(1.00189 0.0147032 0)
(1.03883 0.0152524 0)
(1.01708 0.0150818 0)
(1.02579 0.0149991 0)
(1.02869 0.0156087 0)
(1.02957 0.0155189 0)
(1.0269 0.012303 0)
(1.01933 0.00914793 0)
(1.01058 0.00671651 0)
(1.00001 0.00342376 0)
(0.845616 -0.00975893 0)
(1.24461 0.0212098 0)
(0.916427 -0.0095651 0)
(1.03695 -0.0209293 0)
(1.00411 -0.00182208 0)
(1.18183 0.0183201 0)
(0.98868 0.000922418 0)
(1.08842 0.000422165 0)
(0.979051 0.00540569 0)
(1.01924 0.0116787 0)
(1.01768 0.0145461 0)
(1.03343 0.0150734 0)
(1.02618 0.015245 0)
(1.02857 0.0148478 0)
(1.03235 0.0155022 0)
(1.03367 0.0154892 0)
(1.03231 0.0127142 0)
(1.02475 0.00957435 0)
(1.01511 0.00757692 0)
(1.00438 0.00453339 0)
(0.888873 -0.0104899 0)
(1.18586 0.0206386 0)
(0.974616 -0.0077144 0)
(0.993875 -0.0215269 0)
(1.01583 -0.0035984 0)
(1.14656 0.0183076 0)
(1.03293 0.0023194 0)
(1.05193 0.000715863 0)
(0.995756 0.00617513 0)
(1.011 0.0112736 0)
(1.02319 0.014211 0)
(1.03182 0.0149166 0)
(1.03049 0.0152901 0)
(1.03188 0.0147444 0)
(1.03491 0.015381 0)
(1.03612 0.0154331 0)
(1.03506 0.0130859 0)
(1.028 0.0100761 0)
(1.01811 0.0084465 0)
(1.00762 0.0057405 0)
(0.925077 -0.0110632 0)
(1.12917 0.0198792 0)
(1.00871 -0.0059697 0)
(0.973191 -0.0217442 0)
(1.01388 -0.00540156 0)
(1.11395 0.0178629 0)
(1.05501 0.00376413 0)
(1.03113 0.00134315 0)
(0.998752 0.00661397 0)
(1.00709 0.0109216 0)
(1.02239 0.0137987 0)
(1.02882 0.0147208 0)
(1.03044 0.0152364 0)
(1.03244 0.0146387 0)
(1.03475 0.0152822 0)
(1.03568 0.0153935 0)
(1.03472 0.01343 0)
(1.02847 0.0106122 0)
(1.01928 0.00927741 0)
(1.0096 0.00695067 0)
(0.951373 -0.011449 0)
(1.08116 0.0190846 0)
(1.02529 -0.00451539 0)
(0.97053 -0.0216184 0)
(1.00313 -0.00702306 0)
(1.08389 0.0170941 0)
(1.06008 0.00507314 0)
(1.02183 0.00218496 0)
(0.997061 0.00689546 0)
(1.0027 0.0105792 0)
(1.01713 0.0133783 0)
(1.02277 0.0144786 0)
(1.02617 0.0151046 0)
(1.02918 0.0145233 0)
(1.03129 0.0151988 0)
(1.03219 0.0153636 0)
(1.03171 0.0137325 0)
(1.02664 0.0111291 0)
(1.01884 0.0100138 0)
(1.01053 0.00808148 0)
(0.968129 -0.0116462 0)
(1.04553 0.0183213 0)
(1.03126 -0.00343674 0)
(0.977619 -0.0212188 0)
(0.990569 -0.00830643 0)
(1.05671 0.0161158 0)
(1.05436 0.00609911 0)
(1.01851 0.00306396 0)
(0.995413 0.00718441 0)
(0.99752 0.0103196 0)
(1.00941 0.0129906 0)
(1.0146 0.0142014 0)
(1.01908 0.0149128 0)
(1.0231 0.014377 0)
(1.02551 0.0150989 0)
(1.02674 0.0153216 0)
(1.02714 0.0139525 0)
(1.02351 0.0115833 0)
(1.01745 0.0106251 0)
(1.01078 0.00907779 0)
(0.977819 -0.0116835 0)
(1.02233 0.0175982 0)
(1.03168 -0.00271578 0)
(0.987211 -0.0206484 0)
(0.981392 -0.00918935 0)
(1.03388 0.0150491 0)
(1.04348 0.00680007 0)
(1.01693 0.00383191 0)
(0.994904 0.00755458 0)
(0.993065 0.0102066 0)
(1.00201 0.0126595 0)
(1.00669 0.0139031 0)
(1.01164 0.0146679 0)
(1.01636 0.0141863 0)
(1.01926 0.0149561 0)
(1.02093 0.0152521 0)
(1.02232 0.0140635 0)
(1.0201 0.0119459 0)
(1.01573 0.0111085 0)
(1.01068 0.00990694 0)
(0.98336 -0.0116059 0)
(1.00887 0.0169077 0)
(1.02958 -0.00227182 0)
(0.995311 -0.0200006 0)
(0.977264 -0.00970393 0)
(1.01678 0.0140034 0)
(1.03161 0.0072201 0)
(1.01481 0.00441837 0)
(0.994986 0.00798874 0)
(0.990537 0.0102357 0)
(0.997258 0.0123882 0)
(1.00136 0.0135983 0)
(1.0062 0.0143849 0)
(1.01103 0.0139727 0)
(1.01423 0.0147644 0)
(1.01612 0.0151508 0)
(1.01826 0.014078 0)
(1.01711 0.012209 0)
(1.01412 0.011482 0)
(1.01042 0.0105622 0)
(0.986945 -0.0114568 0)
(1.00157 0.0162472 0)
(1.02645 -0.00201113 0)
(1.00077 -0.0193406 0)
(0.977135 -0.00993832 0)
(1.00537 0.0130564 0)
(1.02115 0.00745622 0)
(1.01156 0.00482088 0)
(0.994967 0.00841839 0)
(0.990055 0.0103466 0)
(0.995898 0.0121514 0)
(0.999481 0.0133036 0)
(1.00382 0.0140968 0)
(1.00815 0.0137679 0)
(1.01121 0.0145475 0)
(1.01295 0.0150311 0)
(1.0154 0.0140386 0)
(1.01486 0.0123844 0)
(1.0128 0.0117672 0)
(1.01009 0.0110657 0)
(0.989724 -0.0112683 0)
(0.997535 0.0156209 0)
(1.02305 -0.00185708 0)
(1.00391 -0.0187116 0)
(0.97907 -0.00997617 0)
(0.998293 0.0122464 0)
(1.01305 0.0076031 0)
(1.00767 0.00506948 0)
(0.994599 0.008774 0)
(0.990958 0.0104616 0)
(0.997119 0.0119131 0)
(1.00033 0.0130288 0)
(1.004 0.01383 0)
(1.00748 0.0136008 0)
(1.01007 0.01434 0)
(1.01133 0.0149171 0)
(1.01372 0.0139967 0)
(1.01335 0.0124966 0)
(1.01182 0.0119853 0)
(1.00977 0.0114565 0)
(0.992072 -0.0110589 0)
(0.995073 0.0150318 0)
(1.01982 -0.00175908 0)
(1.00546 -0.0181364 0)
(0.981522 -0.00988368 0)
(0.993893 0.0115711 0)
(1.00733 0.00772059 0)
(1.00396 0.00520619 0)
(0.994035 0.00901694 0)
(0.992449 0.0105258 0)
(0.999502 0.0116475 0)
(1.0024 0.0127758 0)
(1.00544 0.0135922 0)
(1.00806 0.0134852 0)
(1.0101 0.0141695 0)
(1.01079 0.0148237 0)
(1.01293 0.013981 0)
(1.01249 0.0125791 0)
(1.01121 0.0121628 0)
(1.00955 0.0117755 0)
(0.994008 -0.0108377 0)
(0.993461 0.014479 0)
(1.01706 -0.0016895 0)
(1.00605 -0.0176181 0)
(0.983677 -0.00970394 0)
(0.990954 0.011003 0)
(1.00358 0.00782927 0)
(1.00109 0.00526887 0)
(0.993572 0.00914085 0)
(0.993989 0.0105203 0)
(1.0019 0.0113473 0)
(1.0044 0.0125454 0)
(1.00689 0.0133798 0)
(1.00888 0.0134161 0)
(1.01051 0.014046 0)
(1.01076 0.0147439 0)
(1.01264 0.0139958 0)
(1.01209 0.0126636 0)
(1.01093 0.0123155 0)
(1.0095 0.0120456 0)
(0.99549 -0.0106087 0)
(0.992439 0.0139549 0)
(1.0149 -0.00163196 0)
(1.00608 -0.0171469 0)
(0.985271 -0.00946474 0)
(0.988872 0.0105085 0)
(1.0013 0.0079257 0)
(0.999328 0.00528525 0)
(0.993428 0.00916219 0)
(0.995332 0.0104577 0)
(1.00372 0.0110228 0)
(1.00568 0.0123399 0)
(1.00769 0.0131885 0)
(1.00931 0.0133689 0)
(1.01078 0.0139658 0)
(1.01082 0.0146639 0)
(1.01256 0.014032 0)
(1.01198 0.0127607 0)
(1.01092 0.0124398 0)
(1.00965 0.0122701 0)
(0.996519 -0.0103734 0)
(0.991886 0.0134486 0)
(1.01334 -0.00157577 0)
(1.00583 -0.0167083 0)
(0.986324 -0.00918521 0)
(0.987433 0.0100587 0)
(1.00003 0.00799811 0)
(0.998584 0.00527419 0)
(0.99365 0.00910848 0)
(0.996415 0.0103628 0)
(1.00485 0.010693 0)
(1.00616 0.0121624 0)
(1.00768 0.0130155 0)
(1.00916 0.0133173 0)
(1.01068 0.0139103 0)
(1.01075 0.0145767 0)
(1.0125 0.01407 0)
(1.01201 0.0128627 0)
(1.01107 0.0125324 0)
(1.00996 0.0124547 0)
(0.997159 -0.0101324 0)
(0.991689 0.0129494 0)
(1.0123 -0.00151499 0)
(1.00547 -0.0162869 0)
(0.986959 -0.00888094 0)
(0.98656 0.00963461 0)
(0.999396 0.00803539 0)
(0.998568 0.00524645 0)
(0.994146 0.00900756 0)
(0.997247 0.0102591 0)
(1.00539 0.0103749 0)
(1.00606 0.0120132 0)
(1.00708 0.0128628 0)
(1.00856 0.0132445 0)
(1.01024 0.0138575 0)
(1.01053 0.0144771 0)
(1.01237 0.0140872 0)
(1.01207 0.012959 0)
(1.01128 0.0125972 0)
(1.01034 0.0126087 0)
(0.997504 -0.00988524 0)
(0.991738 0.0124463 0)
(1.0116 -0.00144399 0)
(1.00511 -0.0158712 0)
(0.987317 -0.00856594 0)
(0.98618 0.0092238 0)
(0.999139 0.00803358 0)
(0.998969 0.00520769 0)
(0.994759 0.00887793 0)
(0.997863 0.010168 0)
(1.00552 0.0100797 0)
(1.00568 0.0118853 0)
(1.0062 0.0127339 0)
(1.00778 0.0131421 0)
(1.00962 0.0137936 0)
(1.01022 0.0143613 0)
(1.01215 0.014066 0)
(1.01211 0.0130425 0)
(1.01146 0.0126348 0)
(1.0107 0.0127273 0)
(0.997655 -0.00963205 0)
(0.991937 0.0119332 0)
(1.01109 -0.00136162 0)
(1.00485 -0.0154519 0)
(0.987523 -0.00824809 0)
(0.986186 0.00881593 0)
(0.999068 0.00799321 0)
(0.999544 0.00516347 0)
(0.995347 0.00873035 0)
(0.998307 0.0100988 0)
(1.00539 0.00981495 0)
(1.00525 0.0117685 0)
(1.0053 0.012629 0)
(1.00702 0.0130081 0)
(1.00897 0.0137115 0)
(1.00989 0.0142318 0)
(1.01188 0.0139992 0)
(1.0121 0.0131102 0)
(1.01157 0.0126483 0)
(1.01101 0.012795 0)
(0.997693 -0.0093737 0)
(0.99222 0.0114103 0)
(1.01062 -0.00127159 0)
(1.00469 -0.0150199 0)
(0.987675 -0.00793452 0)
(0.986462 0.00841289 0)
(0.999056 0.00791614 0)
(1.00014 0.00511606 0)
(0.995824 0.00857553 0)
(0.998624 0.0100481 0)
(1.00515 0.00958505 0)
(1.00489 0.0116518 0)
(1.00454 0.0125453 0)
(1.00643 0.0128493 0)
(1.00841 0.0136045 0)
(1.0096 0.0140929 0)
(1.01159 0.0138927 0)
(1.01205 0.0131566 0)
(1.01161 0.0126492 0)
(1.01125 0.0128022 0)
(0.997672 -0.00910962 0)
(0.992552 0.0108756 0)
(1.01012 -0.00117601 0)
(1.00464 -0.0145729 0)
(0.987838 -0.00763079 0)
(0.986901 0.00801592 0)
(0.999024 0.00780762 0)
(1.00067 0.00506887 0)
(0.996164 0.00841898 0)
(0.998851 0.0100096 0)
(1.00489 0.00938845 0)
(1.00467 0.0115263 0)
(1.00395 0.0124812 0)
(1.00603 0.0126756 0)
(1.008 0.0134692 0)
(1.00938 0.0139506 0)
(1.01132 0.0137578 0)
(1.01197 0.0131753 0)
(1.01157 0.0126503 0)
(1.0114 0.0127535 0)
(0.997624 -0.00884034 0)
(0.992914 0.0103322 0)
(1.00956 -0.00107978 0)
(1.00466 -0.0141119 0)
(0.98805 -0.00733825 0)
(0.987424 0.00762356 0)
(0.998943 0.00767323 0)
(1.0011 0.00502449 0)
(0.996388 0.00826198 0)
(0.999013 0.00997755 0)
(1.00466 0.00922008 0)
(1.00456 0.0113856 0)
(1.00355 0.0124332 0)
(1.0058 0.0124912 0)
(1.00773 0.0133087 0)
(1.00925 0.013815 0)
(1.0111 0.0136046 0)
(1.01187 0.0131611 0)
(1.01149 0.0126602 0)
(1.01149 0.0126666 0)
(0.997569 -0.0085674 0)
(0.993293 0.00978417 0)
(1.00894 -0.000984813 0)
(1.00472 -0.0136368 0)
(0.988327 -0.00705864 0)
(0.987978 0.00724194 0)
(0.998817 0.00751764 0)
(1.00143 0.00497972 0)
(0.996537 0.00810949 0)
(0.999124 0.00994532 0)
(1.0045 0.00907109 0)
(1.00455 0.0112256 0)
(1.00329 0.0123945 0)
(1.00567 0.0123011 0)
(1.00758 0.0131275 0)
(1.00917 0.0136896 0)
(1.01093 0.0134421 0)
(1.01178 0.0131095 0)
(1.01139 0.0126869 0)
(1.01152 0.012572 0)
(0.997521 -0.00829151 0)
(0.993675 0.00923421 0)
(1.00831 -0.0008936 0)
(1.00478 -0.0131499 0)
(0.988674 -0.0067929 0)
(0.988528 0.00687283 0)
(0.998667 0.00734652 0)
(1.00168 0.00493158 0)
(0.996655 0.00796383 0)
(0.999191 0.00990722 0)
(1.00439 0.00893541 0)
(1.0046 0.0110475 0)
(1.00312 0.0123553 0)
(1.0056 0.0121125 0)
(1.00752 0.0129244 0)
(1.00912 0.0135667 0)
(1.01079 0.0132778 0)
(1.01169 0.0130143 0)
(1.01128 0.0127312 0)
(1.0115 0.0125137 0)
(0.997493 -0.00801298 0)
(0.994044 0.00868561 0)
(1.00768 -0.000809873 0)
(1.00481 -0.0126517 0)
(0.989084 -0.00653871 0)
(0.989054 0.00651477 0)
(0.998512 0.00716451 0)
(1.00184 0.00487674 0)
(0.996774 0.00782189 0)
(0.999221 0.00986411 0)
(1.00434 0.00881293 0)
(1.00468 0.0108571 0)
(1.00303 0.0123138 0)
(1.00555 0.0119331 0)
(1.0075 0.0126982 0)
(1.00909 0.0134415 0)
(1.01067 0.0131201 0)
(1.01161 0.0128655 0)
(1.01117 0.0127583 0)
(1.01143 0.0125255 0)
(0.997496 -0.00773263 0)
(0.994385 0.00813978 0)
(1.00707 -0.000732614 0)
(1.00479 -0.0121425 0)
(0.98955 -0.00629721 0)
(0.989551 0.00616993 0)
(0.998367 0.00697761 0)
(1.00194 0.00481082 0)
(0.996909 0.00768035 0)
(0.999225 0.00981877 0)
(1.00432 0.00869969 0)
(1.00479 0.0106542 0)
(1.00297 0.0122764 0)
(1.00548 0.0117716 0)
(1.00752 0.0124508 0)
(1.00906 0.0133179 0)
(1.01055 0.012987 0)
(1.01153 0.0126773 0)
(1.01109 0.0127187 0)
(1.01132 0.012599 0)
(0.997532 -0.00745282 0)
(0.994691 0.00760282 0)
(1.0065 -0.000664189 0)
(1.00474 -0.0116249 0)
(0.990054 -0.00606813 0)
(0.99002 0.00583494 0)
(0.998237 0.00679243 0)
(1.002 0.0047297 0)
(0.997063 0.00753403 0)
(0.999212 0.00976935 0)
(1.00431 0.00859216 0)
(1.00491 0.0104362 0)
(1.00294 0.0122433 0)
(1.00541 0.0116355 0)
(1.00754 0.0121817 0)
(1.00904 0.0131862 0)
(1.01043 0.0128885 0)
(1.01146 0.0124871 0)
(1.01104 0.0125964 0)
(1.0112 0.012674 0)
(0.997601 -0.00717114 0)
(0.99496 0.00707157 0)
(1.00596 -0.000602464 0)
(1.00464 -0.0111037 0)
(0.990583 -0.00585177 0)
(0.990469 0.00550442 0)
(0.998122 0.00661626 0)
(1.00202 0.00463482 0)
(0.997232 0.00737809 0)
(0.999189 0.00971353 0)
(1.0043 0.00848937 0)
(1.00505 0.0101972 0)
(1.00292 0.0122011 0)
(1.00531 0.0115291 0)
(1.00758 0.0118982 0)
(1.00902 0.0130284 0)
(1.0103 0.0128108 0)
(1.01137 0.0123222 0)
(1.01101 0.0124185 0)
(1.01109 0.0126775 0)
(0.997696 -0.00688928 0)
(0.995197 0.00654909 0)
(1.00545 -0.000550736 0)
(1.00451 -0.0105782 0)
(0.99112 -0.00563954 0)
(0.990905 0.00517415 0)
(0.99802 0.00645421 0)
(1.00201 0.00453689 0)
(0.997409 0.00720756 0)
(0.999161 0.00965581 0)
(1.00428 0.00839868 0)
(1.00521 0.00993385 0)
(1.00292 0.012136 0)
(1.00518 0.0114524 0)
(1.0076 0.0116134 0)
(1.00903 0.0128432 0)
(1.01015 0.0127364 0)
(1.01126 0.0121808 0)
(1.01099 0.0122333 0)
(1.01101 0.0125858 0)
(0.99781 -0.00660864 0)
(0.995412 0.00604018 0)
(1.00495 -0.000511666 0)
(1.00436 -0.0100496 0)
(0.991655 -0.00542524 0)
(0.991331 0.00484042 0)
(0.997928 0.00630321 0)
(1.00198 0.00444469 0)
(0.997591 0.00701579 0)
(0.99913 0.00959875 0)
(1.00423 0.00833073 0)
(1.00538 0.00965294 0)
(1.00294 0.0120482 0)
(1.00504 0.0114095 0)
(1.00762 0.0113377 0)
(1.00904 0.0126404 0)
(1.01001 0.0126695 0)
(1.01113 0.012039 0)
(1.01097 0.0120583 0)
(1.01097 0.0124294 0)
(0.997935 -0.00632765 0)
(0.995611 0.00554282 0)
(1.00446 -0.000478169 0)
(1.0042 -0.00952847 0)
(0.992181 -0.00521658 0)
(0.991752 0.00449712 0)
(0.997846 0.0061527 0)
(1.00194 0.00435999 0)
(0.997777 0.00680146 0)
(0.999101 0.00953355 0)
(1.00416 0.00828537 0)
(1.00555 0.00935838 0)
(1.00298 0.0119345 0)
(1.00488 0.0114011 0)
(1.00763 0.0110736 0)
(1.00908 0.0124127 0)
(1.00985 0.0126275 0)
(1.01097 0.0118958 0)
(1.01094 0.0118707 0)
(1.01095 0.0122523 0)
(0.998064 -0.00604653 0)
(0.995801 0.00505598 0)
(1.00398 -0.000444089 0)
(1.00403 -0.00902244 0)
(0.992694 -0.00500433 0)
(0.992167 0.00414386 0)
(0.99777 0.00599483 0)
(1.00189 0.00428436 0)
(0.997967 0.00656577 0)
(0.999075 0.00943955 0)
(1.00406 0.00826003 0)
(1.00572 0.00905525 0)
(1.00304 0.0117811 0)
(1.00469 0.0114202 0)
(1.00761 0.0108279 0)
(1.00914 0.012138 0)
(1.0097 0.0126046 0)
(1.01079 0.0117879 0)
(1.0109 0.0116476 0)
(1.01095 0.0120574 0)
(0.998194 -0.00576592 0)
(0.995987 0.00458271 0)
(1.00351 -0.000410585 0)
(1.00386 -0.00853744 0)
(0.99319 -0.00477416 0)
(0.992576 0.00379099 0)
(0.9977 0.00583384 0)
(1.00182 0.00422759 0)
(0.99816 0.00631819 0)
(0.999055 0.00930586 0)
(1.00392 0.00825456 0)
(1.00588 0.00875488 0)
(1.00312 0.0115733 0)
(1.00448 0.0114539 0)
(1.00756 0.0106194 0)
(1.00922 0.0118121 0)
(1.00956 0.0125688 0)
(1.01056 0.011753 0)
(1.01084 0.0114127 0)
(1.01098 0.0118146 0)
(0.99832 -0.00548626 0)
(0.996171 0.00411885 0)
(1.00304 -0.00036656 0)
(1.00367 -0.00808104 0)
(0.993669 -0.00453503 0)
(0.992978 0.0034416 0)
(0.997636 0.00566098 0)
(1.00175 0.00419591 0)
(0.998352 0.00607263 0)
(0.999047 0.00914034 0)
(1.00376 0.00827417 0)
(1.00602 0.00847707 0)
(1.00323 0.0113141 0)
(1.00426 0.0114892 0)
(1.00745 0.0104598 0)
(1.00931 0.0114441 0)
(1.00945 0.0124782 0)
(1.01029 0.0117823 0)
(1.01073 0.0112208 0)
(1.01101 0.0115222 0)
(0.998442 -0.00520225 0)
(0.996354 0.00365488 0)
(1.00258 -0.000305503 0)
(1.00348 -0.00765964 0)
(0.994129 -0.00429429 0)
(0.993374 0.00310665 0)
(0.99758 0.00546066 0)
(1.00166 0.00418384 0)
(0.998541 0.00583855 0)
(0.999053 0.0089414 0)
(1.00358 0.00830331 0)
(1.00614 0.00822943 0)
(1.00337 0.0110149 0)
(1.00403 0.0115191 0)
(1.00729 0.0103589 0)
(1.00941 0.0110565 0)
(1.00938 0.0123173 0)
(1.00999 0.011844 0)
(1.01056 0.0111114 0)
(1.01104 0.0112222 0)
(0.998558 -0.00491914 0)
(0.996539 0.00319721 0)
(1.00213 -0.000228179 0)
(1.00328 -0.00727785 0)
(0.99457 -0.00404894 0)
(0.99376 0.00280203 0)
(0.997533 0.00522719 0)
(1.00156 0.00417633 0)
(0.99872 0.00562387 0)
(0.999073 0.00870867 0)
(1.00337 0.00831985 0)
(1.00622 0.00801158 0)
(1.00354 0.0106816 0)
(1.00381 0.0115276 0)
(1.00707 0.0103151 0)
(1.00949 0.0106675 0)
(1.00935 0.0120778 0)
(1.00969 0.0119017 0)
(1.01031 0.0110767 0)
(1.01101 0.0109576 0)
(0.998667 -0.00463461 0)
(0.996725 0.00274155 0)
(1.00169 -0.000129501 0)
(1.00308 -0.0069328 0)
(0.994994 -0.00381204 0)
(0.994132 0.00253694 0)
(0.997494 0.00496043 0)
(1.00144 0.00415795 0)
(0.998887 0.00543155 0)
(0.999108 0.00845256 0)
(1.00315 0.00831576 0)
(1.00627 0.00782241 0)
(1.00373 0.010316 0)
(1.00361 0.0114969 0)
(1.00678 0.0103241 0)
(1.00953 0.0102989 0)
(1.00938 0.0117537 0)
(1.0094 0.0119324 0)
(1.00999 0.0110998 0)
(1.01092 0.0107525 0)
(0.998769 -0.00434544 0)
(0.996914 0.00228229 0)
(1.00126 -1.52949e-05 0)
(1.00287 -0.00660042 0)
(0.995403 -0.00360417 0)
(0.994488 0.00232616 0)
(0.997463 0.0046817 0)
(1.00133 0.00412022 0)
(0.99904 0.00525854 0)
(0.999154 0.00818666 0)
(1.00292 0.00829263 0)
(1.00627 0.00765892 0)
(1.00394 0.00992373 0)
(1.00344 0.0114156 0)
(1.00644 0.0103871 0)
(1.00952 0.00998375 0)
(1.00946 0.0113445 0)
(1.00915 0.0119068 0)
(1.00962 0.0111763 0)
(1.01074 0.0106161 0)
(0.998864 -0.00405803 0)
(0.997107 0.00182888 0)
(1.00084 9.63706e-05 0)
(1.00265 -0.00626004 0)
(0.9958 -0.00343228 0)
(0.994831 0.00216692 0)
(0.997434 0.00441155 0)
(1.00121 0.00406309 0)
(0.999178 0.00510653 0)
(0.99921 0.00792441 0)
(1.00269 0.00825342 0)
(1.00623 0.0075126 0)
(1.00415 0.00951162 0)
(1.00332 0.0112717 0)
(1.00606 0.0104883 0)
(1.00944 0.00975355 0)
(1.00958 0.0108639 0)
(1.00897 0.0117732 0)
(1.00921 0.0112845 0)
(1.01045 0.0105601 0)
(0.998951 -0.00376867 0)
(0.997303 0.00137799 0)
(1.00044 0.000204108 0)
(1.00241 -0.00590217 0)
(0.996188 -0.00331565 0)
(0.995161 0.00203808 0)
(0.997406 0.00415763 0)
(1.00108 0.00397495 0)
(0.999304 0.0049667 0)
(0.999275 0.00767144 0)
(1.00245 0.00820306 0)
(1.00615 0.00738103 0)
(1.00437 0.00908602 0)
(1.00325 0.0110595 0)
(1.00565 0.0105948 0)
(1.00925 0.0096271 0)
(1.0097 0.0103674 0)
(1.00889 0.0115 0)
(1.00881 0.0113674 0)
(1.01007 0.0105872 0)
(0.999032 -0.00347862 0)
(0.997504 0.000929425 0)
(1.00007 0.000305432 0)
(1.00217 -0.00549938 0)
(0.996567 -0.0032724 0)
(0.995488 0.00192269 0)
(0.997378 0.00393853 0)
(1.00096 0.00384934 0)
(0.99942 0.00481807 0)
(0.999349 0.00742891 0)
(1.0022 0.00814982 0)
(1.00602 0.0072779 0)
(1.00459 0.00865665 0)
(1.00324 0.0107786 0)
(1.00524 0.0106677 0)
(1.00896 0.00958686 0)
(1.00978 0.0099227 0)
(1.0089 0.0111052 0)
(1.00847 0.011361 0)
(1.00962 0.0106644 0)
(0.999105 -0.00319329 0)
(0.99771 0.000501095 0)
(0.999721 0.000380531 0)
(1.0019 -0.00504426 0)
(0.996932 -0.00327674 0)
(0.995819 0.0018126 0)
(0.997348 0.00377318 0)
(1.00083 0.00370421 0)
(0.999532 0.00464989 0)
(0.999436 0.00719344 0)
(1.00196 0.008088 0)
(1.00583 0.00720679 0)
(1.00479 0.00823299 0)
(1.0033 0.0104296 0)
(1.00485 0.0106844 0)
(1.00859 0.0095997 0)
(1.00979 0.00956689 0)
(1.00898 0.0106386 0)
(1.00821 0.0112343 0)
(1.00913 0.0107304 0)
(0.999171 -0.0029127 0)
(0.997921 9.57165e-05 0)
(0.999414 0.000423727 0)
(1.00162 -0.00454902 0)
(0.99728 -0.00329427 0)
(0.996162 0.00167967 0)
(0.997317 0.00367109 0)
(1.00069 0.0035779 0)
(0.999642 0.00445706 0)
(0.999541 0.00695032 0)
(1.00173 0.00801718 0)
(1.00559 0.00717127 0)
(1.00496 0.0078376 0)
(1.00342 0.0100112 0)
(1.00451 0.0106297 0)
(1.00814 0.00963856 0)
(1.00971 0.00930481 0)
(1.00909 0.0101499 0)
(1.00805 0.0109924 0)
(1.00867 0.0107306 0)
(0.999231 -0.00263925 0)
(0.998135 -0.000276087 0)
(0.999152 0.000426939 0)
(1.00132 -0.00402075 0)
(0.997605 -0.00329804 0)
(0.996524 0.00150149 0)
(0.997295 0.00361223 0)
(1.00054 0.00349267 0)
(0.999748 0.0042451 0)
(0.99967 0.00667836 0)
(1.00151 0.00792771 0)
(1.00531 0.00717011 0)
(1.00509 0.00750024 0)
(1.0036 0.00953105 0)
(1.00423 0.010481 0)
(1.00766 0.00967424 0)
(1.00953 0.00913429 0)
(1.0092 0.00967957 0)
(1.00799 0.0106581 0)
(1.00826 0.010644 0)
(0.999286 -0.00237821 0)
(0.99835 -0.00060521 0)
(0.998938 0.000380532 0)
(1.00102 -0.00347638 0)
(0.997897 -0.00326117 0)
(0.996906 0.00126606 0)
(0.997291 0.00357054 0)
(1.00038 0.00345564 0)
(0.999843 0.00404064 0)
(0.999826 0.00637218 0)
(1.00133 0.00780191 0)
(1.00498 0.00719297 0)
(1.00515 0.00724 0)
(1.0038 0.00902102 0)
(1.00404 0.0102258 0)
(1.00716 0.00966197 0)
(1.00924 0.00904008 0)
(1.00926 0.00926154 0)
(1.008 0.0102512 0)
(1.00794 0.0104729 0)
(0.999336 -0.00213324 0)
(0.998563 -0.000888981 0)
(0.998777 0.00028245 0)
(1.00072 -0.00293459 0)
(0.99815 -0.00315708 0)
(0.997309 0.000957882 0)
(0.99732 0.00352128 0)
(1.0002 0.00349301 0)
(0.999919 0.00387611 0)
(1.00001 0.00602872 0)
(1.00119 0.00761473 0)
(1.00463 0.00721421 0)
(1.00513 0.00705642 0)
(1.00402 0.00852656 0)
(1.00392 0.00988733 0)
(1.00669 0.00957353 0)
(1.00887 0.00898345 0)
(1.00924 0.00893056 0)
(1.00807 0.00980527 0)
(1.00771 0.0102314 0)
(0.999381 -0.00190871 0)
(0.998769 -0.00111792 0)
(0.998671 0.000135054 0)
(1.00043 -0.00241394 0)
(0.998353 -0.0029638 0)
(0.997726 0.000616553 0)
(0.997402 0.00342619 0)
(1.00002 0.0035941 0)
(0.999962 0.00377593 0)
(1.0002 0.00567041 0)
(1.00111 0.00736602 0)
(1.00428 0.00720878 0)
(1.00504 0.00693638 0)
(1.00421 0.00807352 0)
(1.00387 0.00949613 0)
(1.00627 0.00941044 0)
(1.00845 0.0089087 0)
(1.00914 0.00868486 0)
(1.00815 0.00936409 0)
(1.00757 0.00992255 0)
(0.999423 -0.00170592 0)
(0.998966 -0.00129354 0)
(0.998616 -5.82498e-05 0)
(1.00016 -0.00193008 0)
(0.998505 -0.00269236 0)
(0.998145 0.000288349 0)
(0.997545 0.00326289 0)
(0.999845 0.00371576 0)
(0.999966 0.0037502 0)
(1.00039 0.00532843 0)
(1.00108 0.00705923 0)
(1.00397 0.00715477 0)
(1.00489 0.00686715 0)
(1.00437 0.00767926 0)
(1.00387 0.0090772 0)
(1.00591 0.00919685 0)
(1.00802 0.00879869 0)
(1.00896 0.00849287 0)
(1.00821 0.00896905 0)
(1.00751 0.00954789 0)
(0.999462 -0.00152714 0)
(0.999147 -0.00141044 0)
(0.998613 -0.000284196 0)
(0.999933 -0.0015032 0)
(0.998604 -0.00235662 0)
(0.998551 1.44937e-05 0)
(0.997756 0.00300765 0)
(0.999705 0.00382289 0)
(0.99993 0.00380892 0)
(1.00057 0.00503874 0)
(1.00111 0.00669893 0)
(1.00369 0.00702887 0)
(1.00471 0.00681873 0)
(1.00448 0.00735389 0)
(1.00392 0.00864659 0)
(1.00561 0.00893901 0)
(1.0076 0.00866428 0)
(1.00872 0.00832597 0)
(1.00822 0.00864304 0)
(1.00752 0.00914087 0)
(0.999499 -0.00137657 0)
(0.999311 -0.00146266 0)
(0.998652 -0.000525731 0)
(0.999749 -0.00115484 0)
(0.998658 -0.00197471 0)
(0.998923 -0.000174465 0)
(0.998027 0.00266356 0)
(0.999622 0.00387587 0)
(0.999865 0.00392785 0)
(1.00071 0.00482724 0)
(1.00117 0.00632892 0)
(1.00348 0.00683596 0)
(1.0045 0.00675424 0)
(1.00455 0.00709394 0)
(1.00399 0.00822957 0)
(1.00537 0.00863317 0)
(1.0072 0.00850089 0)
(1.00844 0.00816264 0)
(1.00818 0.00837295 0)
(1.00753 0.00875435 0)
(0.999534 -0.00125195 0)
(0.999454 -0.0014601 0)
(0.998726 -0.000760671 0)
(0.999616 -0.000890418 0)
(0.998678 -0.00156717 0)
(0.999245 -0.000266979 0)
(0.998345 0.00228016 0)
(0.999614 0.00384172 0)
(0.999787 0.00406215 0)
(1.0008 0.00468969 0)
(1.00126 0.00598156 0)
(1.00333 0.00658789 0)
(1.00431 0.00665081 0)
(1.00456 0.00687451 0)
(1.00406 0.00785582 0)
(1.0052 0.00830539 0)
(1.00683 0.00830223 0)
(1.00815 0.00798941 0)
(1.00808 0.00812502 0)
(1.00753 0.00841952 0)
(0.999568 -0.00114984 0)
(0.999574 -0.00141463 0)
(0.998824 -0.000969571 0)
(0.99954 -0.00071516 0)
(0.998677 -0.00115618 0)
(0.999504 -0.000247245 0)
(0.998689 0.0019126 0)
(0.999688 0.00369333 0)
(0.999718 0.00417428 0)
(1.00084 0.00462664 0)
(1.00133 0.00567744 0)
(1.00323 0.00630239 0)
(1.00413 0.00650513 0)
(1.00456 0.0066645 0)
(1.00412 0.00751494 0)
(1.00507 0.00797664 0)
(1.00651 0.00807019 0)
(1.00784 0.00780175 0)
(1.00796 0.00787452 0)
(1.00749 0.00812194 0)
(0.999601 -0.00106878 0)
(0.999672 -0.00133602 0)
(0.998935 -0.00113597 0)
(0.999519 -0.000622577 0)
(0.998672 -0.000772125 0)
(0.9997 -0.00013032 0)
(0.999026 0.00161032 0)
(0.99984 0.00342945 0)
(0.999686 0.00421773 0)
(1.00085 0.00461127 0)
(1.00139 0.00543079 0)
(1.00316 0.00600749 0)
(1.00398 0.00632518 0)
(1.00453 0.00646044 0)
(1.00418 0.007188 0)
(1.00498 0.00764623 0)
(1.00623 0.00781458 0)
(1.00754 0.00760351 0)
(1.00781 0.00762453 0)
(1.00745 0.00782287 0)
(0.999632 -0.0009995 0)
(0.999749 -0.00123979 0)
(0.999047 -0.00125214 0)
(0.999551 -0.000583845 0)
(0.998679 -0.000437587 0)
(0.999836 6.04323e-05 0)
(0.999329 0.00140635 0)
(1.00005 0.00310915 0)
(0.999713 0.00416915 0)
(1.00083 0.00460049 0)
(1.00141 0.00524384 0)
(1.00311 0.00572312 0)
(1.00386 0.00610963 0)
(1.00449 0.00625889 0)
(1.00423 0.00687901 0)
(1.00492 0.00731032 0)
(1.00599 0.00754043 0)
(1.00724 0.00739301 0)
(1.00764 0.00739109 0)
(1.0074 0.00751147 0)
(0.999662 -0.000943634 0)
(0.999808 -0.00112352 0)
(0.999154 -0.00129905 0)
(0.999626 -0.000592988 0)
(0.998707 -0.000177552 0)
(0.999925 0.000280303 0)
(0.999579 0.00129846 0)
(1.00029 0.00279288 0)
(0.999802 0.00402077 0)
(1.00082 0.0045655 0)
(1.0014 0.00510569 0)
(1.00307 0.00547007 0)
(1.00377 0.00587001 0)
(1.00444 0.00604331 0)
(1.00426 0.00659503 0)
(1.00488 0.00697958 0)
(1.0058 0.00724572 0)
(1.00696 0.00715804 0)
(1.00743 0.00717019 0)
(1.00734 0.00720828 0)
(0.999689 -0.000894365 0)
(0.999854 -0.00100424 0)
(0.999241 -0.00128065 0)
(0.999727 -0.000626695 0)
(0.998763 3.55673e-06 0)
(0.999982 0.000489767 0)
(0.999771 0.00127473 0)
(1.00054 0.00251937 0)
(0.999948 0.00379147 0)
(1.00083 0.00448241 0)
(1.00136 0.00498767 0)
(1.00301 0.00525258 0)
(1.00369 0.0056318 0)
(1.0044 0.00580722 0)
(1.00428 0.00631953 0)
(1.00484 0.00666968 0)
(1.00563 0.00694227 0)
(1.00672 0.00689203 0)
(1.00721 0.0069405 0)
(1.00725 0.00692589 0)
(0.999713 -0.000841547 0)
(0.999891 -0.000903175 0)
(0.99931 -0.00121906 0)
(0.999843 -0.000650376 0)
(0.998848 0.000111239 0)
(1.00002 0.000671817 0)
(0.999908 0.0013111 0)
(1.00075 0.00231208 0)
(1.00013 0.00353105 0)
(1.00088 0.00433764 0)
(1.00132 0.00486919 0)
(1.00293 0.0050606 0)
(1.00361 0.00540591 0)
(1.00436 0.00557026 0)
(1.0043 0.00603603 0)
(1.0048 0.00637265 0)
(1.00548 0.0066543 0)
(1.0065 0.00660945 0)
(1.007 0.006687 0)
(1.00713 0.00665292 0)
(0.999733 -0.000790134 0)
(0.999923 -0.000813504 0)
(0.999361 -0.00111831 0)
(0.999958 -0.000657391 0)
(0.998957 0.000162051 0)
(1.00006 0.000817157 0)
(1 0.00137364 0)
(1.00093 0.00216859 0)
(1.00033 0.00327982 0)
(1.00096 0.00413426 0)
(1.00128 0.00473479 0)
(1.00284 0.00488746 0)
(1.00352 0.00518524 0)
(1.00431 0.00534026 0)
(1.00431 0.0057545 0)
(1.00478 0.00606262 0)
(1.00533 0.00638003 0)
(1.00629 0.00633856 0)
(1.00679 0.0064199 0)
(1.00698 0.00638425 0)
(0.999751 -0.000735849 0)
(0.999953 -0.000738206 0)
(0.999397 -0.000996427 0)
(1.00006 -0.000637422 0)
(0.999085 0.000177836 0)
(1.00011 0.000922047 0)
(1.00006 0.00144292 0)
(1.00107 0.00208368 0)
(1.00053 0.0030583 0)
(1.00108 0.00389749 0)
(1.00126 0.00456792 0)
(1.00273 0.00472697 0)
(1.00342 0.00497082 0)
(1.00425 0.00510174 0)
(1.00431 0.00548689 0)
(1.00477 0.00574017 0)
(1.00521 0.00608371 0)
(1.00608 0.00608024 0)
(1.00658 0.00615229 0)
(1.00681 0.00612129 0)
(0.999765 -0.000678197 0)
(0.999983 -0.000674566 0)
(0.999423 -0.000875322 0)
(1.00015 -0.000584607 0)
(0.999224 0.000176259 0)
(1.00017 0.000986004 0)
(1.00009 0.00150879 0)
(1.00117 0.00204061 0)
(1.0007 0.00287407 0)
(1.00122 0.00365266 0)
(1.00127 0.00436721 0)
(1.00262 0.00456454 0)
(1.0033 0.0047806 0)
(1.00418 0.00486083 0)
(1.00428 0.00522298 0)
(1.00475 0.00543391 0)
(1.00513 0.00575308 0)
(1.00589 0.00579972 0)
(1.00636 0.00587634 0)
(1.00664 0.00584142 0)
(0.999776 -0.000620513 0)
(1.00001 -0.000615703 0)
(0.999444 -0.000755295 0)