/*--------------------------------*- C++ -*----------------------------------*\
| =========                 |                                                 |
| \\      /  F ield         | OpenFOAM: The Open Source CFD Toolbox           |
|  \\    /   O peration     | Version:  2506                                  |
|   \\  /    A nd           | Website:  www.openfoam.com                      |
|    \\/     M anipulation  |                                                 |
\*---------------------------------------------------------------------------*/
FoamFile
{
    version     2.0;
    format      ascii;
    arch        "LSB;label=32;scalar=64";
    class       volVectorField;
    location    "8.75";
    object      U;
}
// * * * * * * * * * * * * * * * * * * * * * * * * * * * * * * * * * * * * * //

dimensions      [0 1 -1 0 0 0 0];

internalField   nonuniform List<vector> 
9600
(
(0.910236 -0.00966518 0)
(1.04497 0.00848829 0)
(0.968361 0.006932 0)
(0.993087 0.00535475 0)
(0.980384 -0.0168569 0)
(1.0317 -0.0236437 0)
(1.04991 0.00763728 0)
(1.07564 -0.00634154 0)
(1.01974 0.0400493 0)
(1.10074 0.000827042 0)
(0.954242 0.0197431 0)
(1.0841 -0.00742401 0)
(0.907972 -0.012519 0)
(1.04962 -0.0190427 0)
(0.8882 -0.0337464 0)
(1.02906 -0.0244145 0)
(0.89039 -0.032305 0)
(1.04477 -0.0296468 0)
(0.880402 -0.0227532 0)
(1.08671 -0.0310203 0)
(0.9206 -0.00940999 0)
(1.04295 0.00821367 0)
(0.977574 0.00731054 0)
(0.990908 0.00531897 0)
(0.976181 -0.0173387 0)
(1.02013 -0.0243992 0)
(1.04825 0.00691344 0)
(1.07273 -0.00574466 0)
(1.0236 0.0393806 0)
(1.08696 0.0023556 0)
(0.977094 0.0195129 0)
(1.04847 -0.00641761 0)
(0.967326 -0.012074 0)
(1.00331 -0.0185423 0)
(0.970851 -0.0328931 0)
(0.975968 -0.0247554 0)
(0.970711 -0.0321416 0)
(0.969374 -0.0303271 0)
(0.977974 -0.0229277 0)
(0.976475 -0.0328767 0)
(0.935792 -0.00920832 0)
(1.03777 0.00781527 0)
(0.992353 0.00772315 0)
(0.987834 0.0053865 0)
(0.972246 -0.0175893 0)
(1.00552 -0.0250522 0)
(1.04483 0.00619465 0)
(1.06868 -0.00538322 0)
(1.02922 0.0389779 0)
(1.07463 0.0029102 0)
(1.00042 0.0199308 0)
(1.03747 -0.00625258 0)
(0.997039 -0.0114545 0)
(1.0005 -0.0187136 0)
(0.98856 -0.0322791 0)
(0.972742 -0.024895 0)
(0.973512 -0.0317702 0)
(0.967974 -0.0304663 0)
(0.972818 -0.023921 0)
(0.977127 -0.0294228 0)
(0.952745 -0.00907369 0)
(1.0303 0.00739308 0)
(1.00553 0.00807809 0)
(0.986136 0.00564481 0)
(0.969839 -0.017746 0)
(0.991391 -0.0257271 0)
(1.03912 0.00543729 0)
(1.06415 -0.00511519 0)
(1.03526 0.0388295 0)
(1.06685 0.0034482 0)
(1.01901 0.0203015 0)
(1.03597 -0.00592657 0)
(1.01104 -0.0108672 0)
(1.00411 -0.0184676 0)
(0.993659 -0.0314509 0)
(0.977713 -0.0246146 0)
(0.975225 -0.0314349 0)
(0.971058 -0.0306922 0)
(0.970722 -0.0238099 0)
(0.975215 -0.028666 0)
(0.968643 -0.00898814 0)
(1.02204 0.00699761 0)
(1.01255 0.00840388 0)
(0.987312 0.00601843 0)
(0.970401 -0.0177803 0)
(0.980329 -0.0263712 0)
(1.03178 0.00453118 0)
(1.05914 -0.0049995 0)
(1.04074 0.0386552 0)
(1.06379 0.00384813 0)
(1.03102 0.0205405 0)
(1.03818 -0.00552569 0)
(1.01806 -0.0103978 0)
(1.00813 -0.0181334 0)
(0.997394 -0.0306676 0)
(0.982259 -0.0244793 0)
(0.979463 -0.030952 0)
(0.972563 -0.0306423 0)
(0.972204 -0.0238043 0)
(0.972346 -0.0280578 0)
(0.981321 -0.00893708 0)
(1.01416 0.00667559 0)
(1.0132 0.00866863 0)
(0.991383 0.00642316 0)
(0.974461 -0.0176819 0)
(0.972781 -0.0269567 0)
(1.02451 0.00348079 0)
(1.05298 -0.00506143 0)
(1.04589 0.0383577 0)
(1.06232 0.00421435 0)
(1.0382 0.0206998 0)
(1.04003 -0.00501897 0)
(1.02185 -0.00992998 0)
(1.01071 -0.0176738 0)
(0.999848 -0.0298823 0)
(0.985127 -0.0242556 0)
(0.982394 -0.0303752 0)
(0.97437 -0.0305242 0)
(0.973219 -0.0238066 0)
(0.971672 -0.0272419 0)
(0.989861 -0.0089009 0)
(1.00725 0.0064408 0)
(1.01009 0.00883891 0)
(0.997222 0.00677701 0)
(0.98127 -0.0174444 0)
(0.968174 -0.0274354 0)
(1.01839 0.00237551 0)
(1.04481 -0.0052855 0)
(1.05029 0.0379579 0)
(1.06023 0.00459943 0)
(1.04164 0.0208097 0)
(1.04096 -0.00444536 0)
(1.02404 -0.00946065 0)
(1.01302 -0.0171883 0)
(1.0022 -0.0291054 0)
(0.987834 -0.0239631 0)
(0.984701 -0.0298663 0)
(0.976471 -0.0303359 0)
(0.974153 -0.0237478 0)
(0.972362 -0.0262749 0)
(0.994599 -0.0088592 0)
(1.00161 0.00628136 0)
(1.00623 0.00890155 0)
(1.00336 0.00703106 0)
(0.989297 -0.0170757 0)
(0.96599 -0.0277707 0)
(1.0132 0.0013037 0)
(1.03376 -0.00564969 0)
(1.05252 0.037439 0)
(1.05577 0.00503635 0)
(1.04226 0.0208453 0)
(1.0407 -0.0038252 0)
(1.0252 -0.00903245 0)
(1.015 -0.0166813 0)
(1.00428 -0.0283168 0)
(0.990336 -0.023635 0)
(0.986755 -0.0293894 0)
(0.978207 -0.0300114 0)
(0.974932 -0.0236741 0)
(0.973299 -0.0253245 0)
(0.996606 -0.00879638 0)
(0.997385 0.00617005 0)
(1.00344 0.00885602 0)
(1.00862 0.0071708 0)
(0.996999 -0.0166017 0)
(0.965954 -0.0279464 0)
(1.00808 0.000345159 0)
(1.01991 -0.00611366 0)
(1.05091 0.0367849 0)
(1.04856 0.0055107 0)
(1.0408 0.0207672 0)
(1.03953 -0.00319073 0)
(1.02577 -0.00867411 0)
(1.01677 -0.0161396 0)
(1.00625 -0.0275624 0)
(0.992916 -0.0232605 0)
(0.98892 -0.0289027 0)
(0.979698 -0.0295639 0)
(0.975395 -0.0236217 0)
(0.973882 -0.0244716 0)
(0.997079 -0.00870545 0)
(0.994585 0.00607265 0)
(1.00219 0.00872169 0)
(1.01238 0.00720589 0)
(1.00332 -0.016058 0)
(0.967734 -0.0279598 0)
(1.00257 -0.000422288 0)
(1.00491 -0.00661842 0)
(1.04492 0.0359939 0)
(1.03963 0.00597988 0)
(1.03809 0.0205303 0)
(1.03783 -0.00256358 0)
(1.02584 -0.00839945 0)
(1.01817 -0.0155728 0)
(1.00782 -0.0268576 0)
(0.995418 -0.0228213 0)
(0.991149 -0.0283799 0)
(0.981097 -0.029017 0)
(0.975607 -0.0235289 0)
(0.973911 -0.023692 0)
(0.996969 -0.00858781 0)
(0.993006 0.00596305 0)
(1.00211 0.00852889 0)
(1.01457 0.00716437 0)
(1.0078 -0.0154846 0)
(0.970759 -0.0278178 0)
(0.997007 -0.000954723 0)
(0.991546 -0.00710575 0)
(1.03574 0.0350648 0)
(1.03092 0.00639626 0)
(1.03485 0.0201036 0)
(1.03596 -0.00194541 0)
(1.02539 -0.00821668 0)
(1.01896 -0.014982 0)
(1.00883 -0.0261909 0)
(0.997496 -0.0223372 0)
(0.993226 -0.0278198 0)
(0.982484 -0.0283579 0)
(0.975824 -0.0233071 0)
(0.973582 -0.0229685 0)
(0.996882 -0.00845039 0)
(0.992295 0.0058333 0)
(1.00261 0.00829958 0)
(1.0155 0.00707554 0)
(1.01053 -0.0149165 0)
(0.974306 -0.0275465 0)
(0.992198 -0.00127204 0)
(0.982318 -0.00753713 0)
(1.02566 0.0340073 0)
(1.02423 0.00672112 0)
(1.03147 0.0194977 0)
(1.03395 -0.00132868 0)
(1.02439 -0.00811841 0)
(1.01884 -0.0143663 0)
(1.00925 -0.0255575 0)
(0.998807 -0.0218437 0)
(0.994841 -0.0272172 0)
(0.983813 -0.0275981 0)
(0.97626 -0.0229117 0)
(0.973304 -0.0222896 0)
(0.997113 -0.00830042 0)
(0.99206 0.00568353 0)
(1.00313 0.00805425 0)
(1.01557 0.00695825 0)
(1.01194 -0.0143668 0)
(0.977743 -0.0271833 0)
(0.988773 -0.00144316 0)
(0.978121 -0.00789199 0)
(1.01671 0.0328461 0)
(1.02015 0.00695331 0)
(1.02803 0.0187666 0)
(1.03161 -0.00071473 0)
(1.02297 -0.00807607 0)
(1.01776 -0.0137374 0)
(1.00923 -0.0249573 0)
(0.999294 -0.0213551 0)
(0.995796 -0.0265705 0)
(0.985007 -0.0268056 0)
(0.976974 -0.0223567 0)
(0.973422 -0.0215979 0)
(0.997716 -0.00814413 0)
(0.991986 0.00552108 0)
(1.00327 0.00780645 0)
(1.01504 0.00682031 0)
(1.01257 -0.0138361 0)
(0.980721 -0.0267524 0)
(0.986803 -0.00154376 0)
(0.977891 -0.00815889 0)
(1.00979 0.0316195 0)
(1.01795 0.00712215 0)
(1.02449 0.0179752 0)
(1.02879 -0.00010816 0)
(1.02135 -0.00807529 0)
(1.01597 -0.013103 0)
(1.00895 -0.0244009 0)
(0.999213 -0.0208683 0)
(0.996106 -0.0258962 0)
(0.986016 -0.0260557 0)
(0.977881 -0.0216677 0)
(0.974018 -0.0208606 0)
(0.998569 -0.00798554 0)
(0.991889 0.00535646 0)
(1.00291 0.00756327 0)
(1.01411 0.00666292 0)
(1.01281 -0.0133238 0)
(0.98319 -0.026267 0)
(0.985865 -0.00162478 0)
(0.979521 -0.00833321 0)
(1.0046 0.0303677 0)
(1.01633 0.00726431 0)
(1.02091 0.0171665 0)
(1.02555 0.000476033 0)
(1.01975 -0.00810965 0)
(1.01394 -0.012485 0)
(1.00854 -0.0238725 0)
(0.998937 -0.0203979 0)
(0.995965 -0.0251936 0)
(0.986828 -0.0253928 0)
(0.978837 -0.0208899 0)
(0.97493 -0.0200863 0)
(0.999468 -0.00782555 0)
(0.991724 0.00519643 0)
(1.00218 0.00733134 0)
(1.01297 0.00647879 0)
(1.01291 -0.012827 0)
(0.985247 -0.0257391 0)
(0.985419 -0.00170379 0)
(0.981206 -0.00841357 0)
(1.00035 0.0291187 0)
(1.01433 0.00740446 0)
(1.01745 0.0163489 0)
(1.02225 0.00102925 0)
(1.01829 -0.00818012 0)
(1.01209 -0.0118969 0)
(1.00808 -0.0233543 0)
(0.998724 -0.0199686 0)
(0.99563 -0.0244375 0)
(0.987459 -0.0248213 0)
(0.979732 -0.0200803 0)
(0.975915 -0.0192867 0)
(1.00023 -0.0076639 0)
(0.991537 0.00504624 0)
(1.0013 0.00711139 0)
(1.01182 0.00626275 0)
(1.01289 -0.0123464 0)
(0.986976 -0.0251768 0)
(0.985118 -0.00177052 0)
(0.982175 -0.00840387 0)
(0.996556 0.0278851 0)
(1.01179 0.00754827 0)
(1.01435 0.0155078 0)
(1.01923 0.00154955 0)
(1.01701 -0.00829547 0)
(1.01062 -0.0113363 0)
(1.00761 -0.022836 0)
(0.998641 -0.0195848 0)
(0.995293 -0.0236062 0)
(0.987945 -0.0243211 0)
(0.980522 -0.0192845 0)
(0.976811 -0.01846 0)
(1.00078 -0.00749814 0)
(0.991404 0.0049035 0)
(1.00051 0.00690382 0)
(1.0108 0.00601506 0)
(1.01275 -0.0118813 0)
(0.988398 -0.0245893 0)
(0.984869 -0.00181524 0)
(0.982522 -0.00831085 0)
(0.993236 0.0266641 0)
(1.0091 0.00769243 0)
(1.01181 0.014623 0)
(1.01673 0.00202886 0)
(1.01593 -0.00844884 0)
(1.00952 -0.0108124 0)
(1.00715 -0.0222871 0)
(0.998643 -0.0192539 0)
(0.995029 -0.0226928 0)
(0.988334 -0.0238641 0)
(0.981223 -0.0185358 0)
(0.977573 -0.0175877 0)
(1.0011 -0.00732666 0)
(0.991376 0.00476302 0)
(0.999903 0.00670893 0)
(1.00997 0.00573895 0)
(1.01248 -0.0114263 0)
(0.989512 -0.0239807 0)
(0.98471 -0.00183806 0)
(0.982634 -0.0081389 0)
(0.990624 0.0254439 0)
(1.00672 0.00783372 0)
(1.00989 0.01368 0)
(1.01476 0.00246864 0)
(1.01503 -0.00862626 0)
(1.00868 -0.0103359 0)
(1.00672 -0.0216713 0)
(0.998679 -0.019005 0)
(0.994832 -0.021702 0)
(0.988665 -0.0233944 0)
(0.981872 -0.0178759 0)
(0.978229 -0.0166497 0)
(1.00124 -0.0071484 0)
(0.991457 0.00461995 0)
(0.999493 0.00652679 0)
(1.00933 0.00543837 0)
(1.01208 -0.0109765 0)
(0.990342 -0.0233533 0)
(0.984673 -0.0018383 0)
(0.982798 -0.00789954 0)
(0.98884 0.0242143 0)
(1.00486 0.00797202 0)
(1.00853 0.0126869 0)
(1.01323 0.00287653 0)
(1.01427 -0.00880193 0)
(1.008 -0.00991954 0)
(1.00631 -0.020972 0)
(0.998725 -0.0188302 0)
(0.994671 -0.0206645 0)
(0.988957 -0.0228628 0)
(0.982505 -0.017344 0)
(0.978823 -0.0156501 0)
(1.00126 -0.00696205 0)
(0.991626 0.00446852 0)
(0.999244 0.0063584 0)
(1.00882 0.00511561 0)
(1.01159 -0.0105264 0)
(0.990945 -0.0227111 0)
(0.984752 -0.00182789 0)
(0.983116 -0.00760697 0)
(0.987819 0.0229702 0)
(1.00353 0.0081104 0)
(1.00763 0.0116593 0)
(1.01204 0.00324831 0)
(1.01363 -0.00894774 0)
(1.00742 -0.00958096 0)
(1.0059 -0.0201715 0)
(0.998783 -0.0187124 0)
(0.994527 -0.0196223 0)
(0.989214 -0.0222346 0)
(0.983145 -0.0169401 0)
(0.979387 -0.0146543 0)
(1.00122 -0.00676764 0)
(0.991848 0.0043055 0)
(0.999115 0.00620272 0)
(1.0084 0.00477725 0)
(1.01104 -0.0100723 0)
(0.991387 -0.0220563 0)
(0.984922 -0.00181583 0)
(0.983578 -0.0072712 0)
(0.987391 0.0217033 0)
(1.00263 0.00824761 0)
(1.00704 0.0106148 0)
(1.01106 0.003559 0)
(1.01305 -0.00904472 0)
(1.00692 -0.00932869 0)
(1.00548 -0.0192688 0)
(0.998856 -0.0186268 0)
(0.994399 -0.0186142 0)
(0.989438 -0.0214868 0)
(0.983798 -0.0166483 0)
(0.979951 -0.013713 0)
(1.00114 -0.00656503 0)
(0.992093 0.00412854 0)
(0.999071 0.00605974 0)
(1.00803 0.00442703 0)
(1.01048 -0.00960888 0)
(0.991733 -0.021389 0)
(0.985162 -0.00181134 0)
(0.984142 -0.00689986 0)
(0.987372 0.0204098 0)
(1.00203 0.00838011 0)
(1.00665 0.00957246 0)
(1.01023 0.00383101 0)
(1.01249 -0.00906761 0)
(1.00647 -0.0091623 0)
(1.00504 -0.0182878 0)
(0.998944 -0.0185288 0)
(0.994294 -0.0176839 0)
(0.989628 -0.0206034 0)
(0.984462 -0.0164327 0)
(0.980538 -0.0128746 0)
(1.00106 -0.00635361 0)
(0.992336 0.00393582 0)
(0.999081 0.0059285 0)
(1.0077 0.00406796 0)
(1.00992 -0.00913609 0)
(0.992033 -0.0207089 0)
(0.985459 -0.00181608 0)
(0.984766 -0.00649903 0)
(0.987612 0.0190916 0)
(1.00161 0.00851354 0)
(1.00639 0.00853847 0)
(1.00949 0.00405123 0)
(1.01194 -0.0089999 0)
(1.00606 -0.0090858 0)
(1.00457 -0.0172439 0)
(0.999046 -0.0183869 0)
(0.994224 -0.0168703 0)
(0.989791 -0.0195847 0)
(0.98512 -0.0162348 0)
(0.981167 -0.0121962 0)
(1.001 -0.00613353 0)
(0.992563 0.00372543 0)
(0.999118 0.0058113 0)
(1.00737 0.00370185 0)
(1.00939 -0.00865949 0)
(0.992323 -0.0200131 0)
(0.985806 -0.00183702 0)
(0.985414 -0.0060731 0)
(0.987997 0.0177559 0)
(1.00128 0.00863763 0)
(1.00619 0.00753585 0)
(1.00879 0.0041776 0)
(1.01136 -0.00883087 0)
(1.0057 -0.00909135 0)
(1.0041 -0.016169 0)
(0.999154 -0.0181652 0)
(0.994205 -0.0161894 0)
(0.989934 -0.0184845 0)
(0.985758 -0.0159955 0)
(0.981851 -0.0116686 0)
(1.00097 -0.00590456 0)
(0.992767 0.00349725 0)
(0.999155 0.00570698 0)
(1.00705 0.00333093 0)
(1.00888 -0.00818424 0)
(0.992623 -0.0192986 0)
(0.986197 -0.00188331 0)
(0.986064 -0.00562802 0)
(0.988451 0.0164118 0)
(1.00097 0.00873909 0)
(1.006 0.00659012 0)
(1.00812 0.00421976 0)
(1.01076 -0.00854809 0)
(1.00539 -0.00916123 0)
(1.00363 -0.0151053 0)
(0.999261 -0.0178294 0)
(0.994248 -0.0156376 0)
(0.990071 -0.0173556 0)
(0.986365 -0.0156655 0)
(0.982592 -0.0112857 0)
(1.00097 -0.00566725 0)
(0.992949 0.00325598 0)
(0.999174 0.00560806 0)
(1.00672 0.00295823 0)
(1.0084 -0.00771484 0)
(0.992938 -0.0185632 0)
(0.986627 -0.00195045 0)
(0.9867 -0.00516685 0)
(0.988933 0.0150614 0)
(1.00065 0.00881594 0)
(1.00582 0.00570963 0)
(1.00747 0.00416622 0)
(1.01013 -0.00816246 0)
(1.00512 -0.00926577 0)
(1.00317 -0.0140847 0)
(0.999358 -0.0173603 0)
(0.994358 -0.0151993 0)
(0.990217 -0.0162463 0)
(0.986934 -0.015216 0)
(0.983382 -0.0110316 0)
(1.00099 -0.00542227 0)
(0.993119 0.00300163 0)
(0.999166 0.00551828 0)
(1.00639 0.00258695 0)
(1.00794 -0.00725618 0)
(0.993263 -0.017802 0)
(0.987092 -0.0020385 0)
(0.987319 -0.00469156 0)
(0.989426 0.0137187 0)
(1.00032 0.00885164 0)
(1.00562 0.00490858 0)
(1.00686 0.00400311 0)
(1.00947 -0.00768579 0)
(1.00489 -0.00937867 0)
(1.00275 -0.0131316 0)
(0.999431 -0.0167588 0)
(0.994536 -0.0148493 0)
(0.990386 -0.0152006 0)
(0.987459 -0.0146431 0)
(0.984202 -0.0108625 0)
(1.00103 -0.00516977 0)
(0.993288 0.00273544 0)
(0.999129 0.00543596 0)
(1.00605 0.00222122 0)
(1.00748 -0.00681073 0)
(0.993585 -0.0170133 0)
(0.987586 -0.00215106 0)
(0.987921 -0.00421072 0)
(0.989929 0.0124019 0)
(0.999968 0.00883127 0)
(1.00541 0.00420167 0)
(1.00627 0.0037376 0)
(1.00879 -0.00713544 0)
(1.00469 -0.00947405 0)
(1.00236 -0.0122752 0)
(0.999469 -0.0160314 0)
(0.994772 -0.0145436 0)
(0.990592 -0.0142592 0)
(0.987942 -0.0139564 0)
(0.985036 -0.0107221 0)
(1.00106 -0.00491013 0)
(0.993468 0.00246005 0)
(0.999071 0.00535451 0)
(1.00572 0.00186427 0)
(1.00703 -0.00638617 0)
(0.993893 -0.0161935 0)
(0.988101 -0.00228594 0)
(0.988512 -0.00373174 0)
(0.990443 0.0111197 0)
(0.999622 0.00874541 0)
(1.00518 0.00359224 0)
(1.00572 0.00338936 0)
(1.00809 -0.00654109 0)
(1.00449 -0.00952174 0)
(1.00203 -0.0115282 0)
(0.999465 -0.0152026 0)
(0.995049 -0.0142277 0)
(0.990843 -0.0134454 0)
(0.988391 -0.0131937 0)
(0.985859 -0.0105538 0)
(1.00109 -0.00464431 0)
(0.993667 0.00217661 0)
(0.999004 0.00527254 0)
(1.0054 0.00152526 0)
(1.00658 -0.00599009 0)
(0.99418 -0.0153449 0)
(0.988631 -0.00243702 0)
(0.989091 -0.0032591 0)
(0.990968 0.00988788 0)
(0.999291 0.00859127 0)
(1.00493 0.00308657 0)
(1.00521 0.00297444 0)
(1.00738 -0.00593594 0)
(1.00429 -0.0094908 0)
(1.00175 -0.0108922 0)
(0.999418 -0.014308 0)
(0.995344 -0.0138686 0)
(0.991143 -0.0127548 0)
(0.988816 -0.0124091 0)
(0.98665 -0.010316 0)
(1.0011 -0.00437368 0)
(0.993889 0.00188974 0)
(0.99894 0.00518618 0)
(1.00508 0.00120004 0)
(1.00614 -0.0056243 0)
(0.994443 -0.0144741 0)
(0.989171 -0.00259878 0)
(0.98966 -0.00280319 0)
(0.991503 0.00872483 0)
(0.998985 0.00835211 0)
(1.00466 0.00268236 0)
(1.00474 0.0025107 0)
(1.00666 -0.00534325 0)
(1.00407 -0.0093645 0)
(1.00153 -0.0103645 0)
(0.999337 -0.0133888 0)
(0.995636 -0.0134342 0)
(0.991488 -0.0121756 0)
(0.989232 -0.0116446 0)
(0.987395 -0.00998854 0)
(1.00109 -0.00409989 0)
(0.994134 0.00160295 0)
(0.998887 0.00509049 0)
(1.00478 0.00089739 0)
(1.0057 -0.00529207 0)
(0.994683 -0.0135818 0)
(0.989718 -0.00275937 0)
(0.990218 -0.00238604 0)
(0.992042 0.00764294 0)
(0.998708 0.00802679 0)
(1.00436 0.00236317 0)
(1.0043 0.00201733 0)
(1.00594 -0.00478288 0)
(1.00382 -0.0091362 0)
(1.00135 -0.0099286 0)
(0.999235 -0.012484 0)
(0.995906 -0.0129132 0)
(0.99187 -0.0116737 0)
(0.989654 -0.0109293 0)
(0.988088 -0.00958061 0)
(1.00108 -0.0038237 0)
(0.994399 0.00131659 0)
(0.998849 0.0049842 0)
(1.00448 0.000630514 0)
(1.00528 -0.00499245 0)
(0.994903 -0.0126724 0)
(0.990269 -0.00292281 0)
(0.990765 -0.00200496 0)
(0.99258 0.00664709 0)
(0.998465 0.00762964 0)
(1.00405 0.00210906 0)
(1.0039 0.00151635 0)
(1.00524 -0.00427451 0)
(1.00354 -0.00880959 0)
(1.00121 -0.00955808 0)
(0.999128 -0.0116173 0)
(0.996144 -0.0123198 0)
(0.992278 -0.0112114 0)
(0.99009 -0.0102844 0)
(0.988726 -0.00911624 0)
(1.00105 -0.00354621 0)
(0.994679 0.00103415 0)
(0.998825 0.0048655 0)
(1.00419 0.000398453 0)
(1.00488 -0.00472801 0)
(0.995104 -0.0117625 0)
(0.990822 -0.00307238 0)
(0.9913 -0.00166871 0)
(0.993112 0.00574236 0)
(0.998256 0.00716599 0)
(1.00372 0.00192218 0)
(1.00353 0.00104197 0)
(1.00456 -0.00383163 0)
(1.00323 -0.00839588 0)
(1.00111 -0.00921444 0)
(0.999033 -0.010815 0)
(0.996346 -0.0116642 0)
(0.992698 -0.0107545 0)
(0.990549 -0.00972396 0)
(0.989319 -0.00862995 0)
(1.00101 -0.00327054 0)
(0.99497 0.000759959 0)
(0.998814 0.0047302 0)
(1.00391 0.000201554 0)
(1.0045 -0.00449927 0)
(0.995291 -0.0108553 0)
(0.991374 -0.00319835 0)
(0.991825 -0.00139592 0)
(0.993633 0.00493598 0)
(0.998084 0.00664948 0)
(1.00338 0.00178078 0)
(1.00319 0.000594444 0)
(1.00393 -0.00346185 0)
(1.00289 -0.00791177 0)
(1.00103 -0.00887546 0)
(0.998961 -0.0100828 0)
(0.996519 -0.0109658 0)
(0.993114 -0.0102737 0)
(0.991028 -0.00923425 0)
(0.989884 -0.00814895 0)
(1.00098 -0.00299687 0)
(0.995267 0.000495405 0)
(0.998813 0.00457718 0)
(1.00363 4.08367e-05 0)
(1.00415 -0.00430177 0)
(0.995466 -0.00996216 0)
(0.991922 -0.00328924 0)
(0.992341 -0.00118174 0)
(0.994141 0.00421933 0)
(0.997948 0.00609306 0)
(1.00303 0.0016579 0)
(1.00288 0.000175942 0)
(1.00334 -0.0031673 0)
(1.00253 -0.00738769 0)
(1.00097 -0.00852129 0)
(0.998921 -0.00942054 0)
(0.99667 -0.0102578 0)
(0.993514 -0.00976385 0)
(0.991523 -0.00878573 0)
(0.990436 -0.00769968 0)
(1.00094 -0.00272727 0)
(0.995568 0.000241973 0)
(0.998822 0.00441083 0)
(1.00334 -8.08144e-05 0)
(1.00382 -0.00413566 0)
(0.995634 -0.00909261 0)
(0.99246 -0.00334159 0)
(0.992846 -0.00102967 0)
(0.994631 0.00357813 0)
(0.997847 0.00551699 0)
(1.00268 0.00154283 0)
(1.00259 -0.000181793 0)
(1.0028 -0.002939 0)
(1.00216 -0.00684249 0)
(1.00091 -0.00814294 0)
(0.998915 -0.00882556 0)
(0.996812 -0.00955818 0)
(0.993895 -0.00922845 0)
(0.992022 -0.0083531 0)
(0.990986 -0.00730442 0)
(1.0009 -0.00246384 0)
(0.995872 4.24755e-06 0)
(0.99884 0.0042262 0)
(1.00306 -0.00016679 0)
(1.00352 -0.00399199 0)
(0.995798 -0.00825841 0)
(0.992984 -0.00335324 0)
(0.993342 -0.000940388 0)
(0.995103 0.00301335 0)
(0.997781 0.00493352 0)
(1.00233 0.00143477 0)
(1.00231 -0.000479837 0)
(1.00233 -0.00277008 0)
(1.00179 -0.00629083 0)
(1.00085 -0.00774142 0)
(0.998944 -0.00828098 0)
(0.996953 -0.00887735 0)
(0.994253 -0.00866837 0)
(0.992515 -0.00791542 0)
(0.991536 -0.00694637 0)
(1.00085 -0.00220863 0)
(0.996174 -0.000210104 0)
(0.998869 0.0040144 0)
(1.00278 -0.000211809 0)
(1.00325 -0.00386924 0)
(0.99596 -0.00747055 0)
(0.993489 -0.00331551 0)
(0.993826 -0.000898762 0)
(0.995557 0.00250971 0)
(0.997748 0.00436069 0)
(1.00199 0.00133119 0)
(1.00206 -0.000726422 0)
(1.00191 -0.0026457 0)
(1.00143 -0.00575413 0)
(1.00079 -0.00731235 0)
(0.999003 -0.00778369 0)
(0.997104 -0.0082374 0)
(0.994593 -0.00809046 0)
(0.992991 -0.00746336 0)
(0.992082 -0.00660123 0)
(1.00081 -0.0019648 0)
(0.996475 -0.00040038 0)
(0.99891 0.00378271 0)
(1.0025 -0.000224442 0)
(1.00301 -0.00376092 0)
(0.996123 -0.00672934 0)
(0.993974 -0.00322983 0)
(0.994298 -0.000903113 0)
(0.995993 0.00205282 0)
(0.997746 0.0038051 0)
(1.00166 0.00121954 0)
(1.00181 -0.000920641 0)
(1.00155 -0.00255356 0)
(1.00109 -0.00524269 0)
(1.00071 -0.0068649 0)
(0.999086 -0.00732527 0)
(0.997274 -0.00764484 0)
(0.994921 -0.00751432 0)
(0.993444 -0.00700533 0)
(0.992613 -0.00625618 0)
(1.00077 -0.00173256 0)
(0.996771 -0.000564962 0)
(0.998962 0.00353022 0)
(1.00222 -0.000212834 0)
(1.00279 -0.00365406 0)
(0.99629 -0.00605249 0)
(0.994433 -0.00309131 0)
(0.994755 -0.000938119 0)
(0.996414 0.00164037 0)
(0.997776 0.00326219 0)
(1.00136 0.00109909 0)
(1.00158 -0.0010585 0)
(1.00125 -0.0024824 0)
(1.00077 -0.00476334 0)
(1.00063 -0.00640041 0)
(0.999186 -0.00689306 0)
(0.997466 -0.00710112 0)
(0.995241 -0.0069582 0)
(0.993876 -0.00654045 0)
(0.993122 -0.00589246 0)
(1.00072 -0.00151567 0)
(0.99706 -0.000696222 0)
(0.999027 0.00324107 0)
(1.00195 -0.000168128 0)
(1.0026 -0.00354653 0)
(0.996463 -0.00544885 0)
(0.994867 -0.00291758 0)
(0.995194 -0.000985986 0)
(0.996818 0.00126197 0)
(0.997834 0.00275114 0)
(1.00108 0.000967395 0)
(1.00136 -0.00114255 0)
(1.001 -0.00241059 0)
(1.00049 -0.00432855 0)
(1.00053 -0.00592591 0)
(0.999294 -0.00647847 0)
(0.99768 -0.00661293 0)
(0.995563 -0.00642654 0)
(0.994291 -0.00607808 0)
(0.993604 -0.00551731 0)
(1.00068 -0.00131511 0)
(0.997338 -0.00079121 0)
(0.999105 0.00292217 0)
(1.00168 -0.000100038 0)
(1.00242 -0.00342361 0)
(0.996645 -0.00491758 0)
(0.995275 -0.00271777 0)
(0.995612 -0.00103638 0)
(0.99721 0.000910256 0)
(0.997921 0.00227003 0)
(1.00082 0.000825722 0)
(1.00116 -0.00118459 0)
(1.0008 -0.00233478 0)
(1.00024 -0.00392815 0)
(1.00042 -0.00545303 0)
(0.999403 -0.00607156 0)
(0.997917 -0.0061813 0)
(0.995892 -0.00592249 0)
(0.994691 -0.00562685 0)
(0.994063 -0.00515728 0)
(1.00064 -0.00113233 0)
(0.997603 -0.000849126 0)
(0.999195 0.00259056 0)
(1.00142 -2.69512e-05 0)
(1.00225 -0.00327988 0)
(0.996833 -0.00445886 0)
(0.995659 -0.00250095 0)
(0.996004 -0.00106802 0)
(0.997584 0.00059404 0)
(0.998036 0.00183212 0)
(1.00061 0.00067841 0)
(1.00097 -0.00120041 0)
(1.00064 -0.00226135 0)
(1.00003 -0.00355909 0)
(1.00031 -0.00498742 0)
(0.999502 -0.00566933 0)
(0.998175 -0.00579758 0)
(0.996239 -0.00547338 0)
(0.995074 -0.00518201 0)
(0.994503 -0.00481197 0)
(1.0006 -0.000968987 0)
(0.99785 -0.000868539 0)
(0.999293 0.00224927 0)
(1.00117 3.8624e-05 0)
(1.00209 -0.00310427 0)
(0.997028 -0.00405776 0)
(0.996023 -0.00228635 0)
(0.996371 -0.00107772 0)
(0.997943 0.000321035 0)
(0.998174 0.00143757 0)
(1.00042 0.000542173 0)
(1.0008 -0.00119915 0)
(1.00052 -0.0021888 0)
(0.999867 -0.00323191 0)
(1.00019 -0.0045326 0)
(0.999587 -0.00525719 0)
(0.998442 -0.00543936 0)
(0.996611 -0.00509666 0)
(0.995453 -0.00475928 0)
(0.994922 -0.00446717 0)
(1.00056 -0.000823791 0)
(0.998079 -0.000858107 0)
(0.999397 0.00191613 0)
(1.00094 7.82359e-05 0)
(1.00194 -0.00289542 0)
(0.997227 -0.00369429 0)
(0.996368 -0.00208047 0)
(0.996711 -0.00106204 0)
(0.998281 9.01762e-05 0)
(0.998333 0.00108309 0)
(1.00027 0.000414746 0)
(1.00064 -0.00118443 0)
(1.00043 -0.00211958 0)
(0.999746 -0.00295392 0)
(1.00008 -0.00410352 0)
(0.999654 -0.00483747 0)
(0.998704 -0.00508912 0)
(0.997007 -0.00478098 0)
(0.995845 -0.00438283 0)
(0.995315 -0.0041134 0)
(1.00052 -0.000693871 0)
(0.998288 -0.000829476 0)
(0.999502 0.00160099 0)
(1.00073 8.89696e-05 0)
(1.00179 -0.00266269 0)
(0.997426 -0.0033539 0)
(0.996697 -0.00188333 0)
(0.997025 -0.00103328 0)
(0.998598 -8.87293e-05 0)
(0.998508 0.00077457 0)
(1.00016 0.000282649 0)
(1.0005 -0.00116796 0)
(1.00037 -0.00206944 0)
(0.999668 -0.00273463 0)
(0.999994 -0.00372298 0)
(0.99971 -0.00443372 0)
(0.998948 -0.00473672 0)
(0.997417 -0.00449727 0)
(0.996268 -0.00408103 0)
(0.995689 -0.00375964 0)
(1.00048 -0.00058038 0)
(0.998476 -0.00078719 0)
(0.999606 0.00132173 0)
(1.00054 6.86279e-05 0)
(1.00166 -0.00242183 0)
(0.997621 -0.0030241 0)
(0.997007 -0.00170107 0)
(0.997315 -0.00100179 0)
(0.998892 -0.000231094 0)
(0.998691 0.000506602 0)
(1.00007 0.000148491 0)
(1.00037 -0.00114252 0)
(1.00034 -0.00203326 0)
(0.999635 -0.00255549 0)
(0.999931 -0.00337957 0)
(0.999761 -0.00404975 0)
(0.999175 -0.00438176 0)
(0.997819 -0.00421478 0)
(0.996722 -0.00384773 0)
(0.99607 -0.00344358 0)
(1.00044 -0.000480023 0)
(0.998645 -0.000741578 0)
(0.999704 0.00108128 0)
(1.00037 2.43207e-05 0)
(1.00154 -0.00218931 0)
(0.997814 -0.00270267 0)
(0.997298 -0.00152347 0)
(0.997581 -0.000962553 0)
(0.999165 -0.000351471 0)
(0.99888 0.000276923 0)
(1.00002 2.01522e-05 0)
(1.00025 -0.00111364 0)
(1.00031 -0.00199214 0)
(0.999647 -0.00241664 0)
(0.999898 -0.0030739 0)
(0.999812 -0.00368101 0)
(0.999386 -0.00403875 0)
(0.998199 -0.00391976 0)
(0.997191 -0.00363562 0)
(0.996475 -0.00319176 0)
(1.00041 -0.000389513 0)
(0.998796 -0.000695357 0)
(0.999797 0.000868864 0)
(1.00022 -2.98887e-05 0)
(1.00144 -0.00197649 0)
(0.998001 -0.00239063 0)
(0.99757 -0.00134439 0)
(0.997822 -0.00091138 0)
(0.999416 -0.000446548 0)
(0.999071 8.33092e-05 0)
(0.999984 -7.6706e-05 0)
(1.00015 -0.00107368 0)
(1.0003 -0.00193376 0)
(0.999694 -0.00231844 0)
(0.999903 -0.00282474 0)
(0.999866 -0.00334432 0)
(0.999584 -0.00372667 0)
(0.998557 -0.00363618 0)
(0.99765 -0.00342798 0)
(0.996914 -0.00301104 0)
(1.00037 -0.000311474 0)
(0.998931 -0.000648403 0)
(0.999883 0.000689939 0)
(1.00009 -7.88581e-05 0)
(1.00135 -0.00179898 0)
(0.998188 -0.00210561 0)
(0.997822 -0.00115631 0)
(0.998038 -0.000846297 0)
(0.999645 -0.000529504 0)
(0.999268 -8.19557e-05 0)
(0.999978 -0.00014849 0)
(1.00005 -0.000999105 0)
(1.00028 -0.00184309 0)
(0.999763 -0.00221761 0)
(0.999945 -0.00261632 0)
(0.999927 -0.00303257 0)
(0.999768 -0.00341681 0)
(0.998895 -0.00336603 0)
(0.998085 -0.0032091 0)
(0.997369 -0.0028642 0)
(1.00034 -0.000240908 0)
(0.99905 -0.000608054 0)
(0.999963 0.000534905 0)
(0.999966 -0.000114294 0)
(1.00128 -0.00164472 0)
(0.998377 -0.00185553 0)
(0.998058 -0.000952551 0)
(0.998225 -0.00075498 0)
(0.999851 -0.000601088 0)
(0.999469 -0.000237115 0)
(1 -0.000232834 0)
(0.999974 -0.000918165 0)
(1.00026 -0.00173501 0)
(0.999842 -0.0021195 0)
(1.00002 -0.0024585 0)
(1.00001 -0.00276496 0)
(0.999938 -0.00311752 0)
(0.999211 -0.00310811 0)
(0.998489 -0.00298441 0)
(0.997808 -0.00270361 0)
(1.00031 -0.000177323 0)
(0.999154 -0.00057559 0)
(1.00004 0.000404899 0)
(0.999862 -0.000133971 0)
(1.00123 -0.00151645 0)
(0.998574 -0.00165131 0)
(0.998285 -0.000751568 0)
(0.998381 -0.000631914 0)
(1.00003 -0.000638164 0)
(0.999669 -0.000376476 0)
(1.00006 -0.000308769 0)
(0.999915 -0.000829118 0)
(1.00023 -0.00159122 0)
(0.999916 -0.00200364 0)
(1.00012 -0.00232687 0)
(1.00011 -0.00255266 0)
(1.00011 -0.00285743 0)
(0.99951 -0.00287764 0)
(0.998875 -0.00279156 0)
(0.998223 -0.0025406 0)
(1.00029 -0.000110163 0)
(0.999246 -0.000552758 0)
(1.00011 0.000282363 0)
(0.999768 -0.000141922 0)
(1.00118 -0.00140067 0)
(0.998783 -0.00149406 0)
(0.998512 -0.00056552 0)
(0.998512 -0.00048128 0)
(1.00017 -0.000649993 0)
(0.999867 -0.000522888 0)
(1.00015 -0.000405176 0)
(0.999887 -0.00076616 0)
(1.00019 -0.00143067 0)
(0.999973 -0.00186046 0)
(1.00022 -0.00219007 0)
(1.00024 -0.00237172 0)
(1.00027 -0.00262405 0)
(0.999783 -0.00264874 0)
(0.999242 -0.00260937 0)
(0.998604 -0.00236189 0)
(1.00026 -7.8647e-05 0)
(0.999323 -0.000484483 0)
(1.00019 0.000204207 0)
(0.99969 -0.000143486 0)
(1.00114 -0.00126968 0)
(0.999001 -0.00135248 0)
(0.998747 -0.000397214 0)
(0.998618 -0.00030962 0)
(1.00027 -0.000606241 0)
(1.00005 -0.000630716 0)
(1.00028 -0.000518655 0)
(0.999902 -0.00072472 0)
(1.00017 -0.00127869 0)
(1.00002 -0.0017016 0)
(1.00032 -0.00205889 0)
(1.00038 -0.00223031 0)
(1.00045 -0.00244951 0)
(1.00004 -0.00245263 0)
(0.9996 -0.00246387 0)
(0.998972 -0.00222046 0)
(1.00024 -2.11907e-05 0)
(0.999398 -0.000531393 0)
(1.00025 8.25551e-05 0)
(0.999624 -7.62936e-05 0)
(1.00111 -0.00109991 0)
(0.999228 -0.00121811 0)
(0.998996 -0.000260813 0)
(0.998716 -0.00015026 0)
(1.00033 -0.000532754 0)
(1.00021 -0.000694698 0)
(1.00043 -0.000648053 0)
(0.999962 -0.000715257 0)
(1.00017 -0.00114181 0)
(1.00005 -0.00151894 0)
(1.00041 -0.00190391 0)
(1.00051 -0.00207944 0)
(1.00064 -0.00229571 0)
(1.00029 -0.00226927 0)
(0.999935 -0.00231782 0)
(0.999343 -0.00210517 0)
(1.00022 1.59245e-05 0)
(0.999459 -0.00050495 0)
(1.00036 -1.60885e-05 0)
(0.9996 -1.84376e-05 0)
(1.00107 -0.000919482 0)
(0.999454 -0.0011282 0)
(0.999258 -0.000197879 0)
(0.99881 -9.87614e-06 0)
(1.00036 -0.000436481 0)
(1.00033 -0.000713662 0)
(1.00059 -0.000751009 0)
(1.00008 -0.000755947 0)
(1.00021 -0.00104327 0)
(1.00009 -0.00134913 0)
(1.00048 -0.00174271 0)
(1.00064 -0.00193405 0)
(1.00083 -0.00217096 0)
(1.00054 -0.0021357 0)
(1.00024 -0.0021869 0)
(0.999706 -0.00202827 0)
(1.00021 3.60839e-05 0)
(0.999515 -0.000393318 0)
(1.00044 -4.64894e-05 0)
(0.999585 2.2534e-05 0)
(1.00104 -0.000733391 0)
(0.999666 -0.00106163 0)
(0.999543 -0.000213619 0)
(0.998923 0.000101308 0)
(1.00038 -0.000312079 0)
(1.00043 -0.00069255 0)
(1.00074 -0.000815313 0)
(1.00022 -0.000813986 0)
(1.00029 -0.000995634 0)
(1.00014 -0.00119924 0)
(1.00054 -0.00157562 0)
(1.00074 -0.00177716 0)
(1.001 -0.00204055 0)
(1.00079 -0.00202809 0)
(1.00053 -0.0020639 0)
(1.00005 -0.00195003 0)
(1.0002 6.94764e-05 0)
(0.999554 -0.000350831 0)
(1.00053 -8.88486e-05 0)
(0.999599 7.51682e-05 0)
(1.001 -0.000536858 0)
(0.999848 -0.00097042 0)
(0.999837 -0.000275646 0)
(0.99906 0.000165018 0)
(1.00037 -0.000182113 0)
(1.00048 -0.000625034 0)
(1.00088 -0.000847907 0)
(1.00039 -0.00084973 0)
(1.00042 -0.000991099 0)
(1.00023 -0.00109047 0)
(1.00061 -0.00142455 0)
(1.00083 -0.00162401 0)
(1.00115 -0.00190838 0)
(1.00103 -0.00193806 0)
(1.00082 -0.00197976 0)
(1.00037 -0.00187602 0)
(1.00019 8.10161e-05 0)
(0.999592 -0.000254023 0)
(1.00062 -0.000104595 0)
(0.999631 9.89393e-05 0)
(1.00096 -0.000341234 0)
(0.999994 -0.000823779 0)
(1.00013 -0.000341849 0)
(0.999239 0.000172748 0)
(1.00038 -6.13558e-05 0)
(1.00051 -0.00051309 0)
(1.00099 -0.000842839 0)
(1.00054 -0.000869383 0)
(1.00057 -0.00099898 0)
(1.00034 -0.0010302 0)
(1.00067 -0.0012968 0)