/*--------------------------------*- C++ -*----------------------------------*\
| =========                 |                                                 |
| \\      /  F ield         | OpenFOAM: The Open Source CFD Toolbox           |
|  \\    /   O peration     | Version:  2506                                  |
|   \\  /    A nd           | Website:  www.openfoam.com                      |
|    \\/     M anipulation  |                                                 |
\*---------------------------------------------------------------------------*/
FoamFile
{
    version     2.0;
    format      ascii;
    arch        "LSB;label=32;scalar=64";
    class       volScalarField;
    location    "2.55";
    object      p;
}
// * * * * * * * * * * * * * * * * * * * * * * * * * * * * * * * * * * * * * //

dimensions      [0 2 -2 0 0 0 0];

internalField   nonuniform List<scalar> 
9600
(
4.7461e-11
-0.000875746
-0.0025501
-0.00143803
0.000676213
-0.000855276
-0.00134819
0.000384226
-0.000731094
-0.000653844
-0.00012905
0.00151504
0.00155431
0.0015066
0.00256373
0.00396337
0.00580325
0.00736408
0.0107612
0.0162283
7.41099e-07
-0.000881935
-0.00253974
-0.00143054
0.000656979
-0.000864192
-0.00129952
0.000374983
-0.000712868
-0.000659266
-0.000132244
0.00152311
0.00154143
0.00150247
0.00256748
0.00395129
0.00582173
0.00732464
0.0109594
0.01581
3.24911e-07
-0.000889343
-0.0025266
-0.00142478
0.000629444
-0.000870753
-0.00127931
0.000360004
-0.000688833
-0.000667326
-0.000128351
0.0015322
0.00151818
0.00150502
0.00256354
0.00394114
0.00582756
0.00727943
0.0110524
0.0152179
-1.56156e-06
-0.000897143
-0.00251135
-0.00142002
0.000601376
-0.000875957
-0.00126451
0.000339626
-0.000661112
-0.000675901
-0.000117015
0.00153865
0.00149029
0.0015107
0.00255567
0.00393003
0.00582932
0.00723037
0.0110594
0.014707
-4.76183e-06
-0.000905088
-0.00249229
-0.00141582
0.000572595
-0.000878929
-0.00125212
0.000313086
-0.000628528
-0.000685604
-0.000102187
0.00154143
0.00145926
0.00151625
0.00255011
0.00391555
0.00583403
0.00717301
0.0110455
0.0142464
-9.09664e-06
-0.000912659
-0.00246918
-0.00141341
0.000544187
-0.000878535
-0.00124134
0.000281621
-0.000591665
-0.000697293
-8.67449e-05
0.00154111
0.00142783
0.00152238
0.00254879
0.00389943
0.00583877
0.0071117
0.0110005
0.0138127
-1.4258e-05
-0.000919575
-0.0024428
-0.0014129
0.000517896
-0.000875119
-0.00123142
0.000247236
-0.000551773
-0.000710214
-7.20201e-05
0.00153971
0.00139806
0.00152914
0.00255257
0.00388212
0.00584092
0.00704892
0.010919
0.0133989
-1.9916e-05
-0.000925911
-0.00241409
-0.00141368
0.000493962
-0.000869784
-0.00122168
0.000211502
-0.000509641
-0.000723264
-5.86535e-05
0.0015386
0.00137034
0.00153607
0.00256069
0.00386396
0.00583873
0.00698544
0.0107979
0.0130016
-2.58356e-05
-0.000931914
-0.00238383
-0.00141519
0.000471529
-0.000863534
-0.00121169
0.000175312
-0.00046562
-0.000735814
-4.71001e-05
0.00153808
0.00134479
0.00154266
0.00257184
0.00384575
0.0058302
0.00692073
0.0106381
0.012618
-3.18876e-05
-0.000937864
-0.00235253
-0.0014171
0.000449558
-0.000857059
-0.00120126
0.000139
-0.000420086
-0.000747588
-3.76905e-05
0.00153829
0.00132145
0.00154827
0.0025848
0.00382814
0.00581307
0.00685393
0.0104426
0.0122439
-3.80171e-05
-0.000943988
-0.00232046
-0.00141916
0.000427263
-0.000850756
-0.00119032
0.000102546
-0.000373553
-0.00075839
-3.06417e-05
0.00153938
0.00129994
0.00155244
0.00259818
0.00381125
0.00578533
0.0067842
0.0102151
0.0118739
-4.42006e-05
-0.000950434
-0.00228772
-0.00142125
0.000404197
-0.000844797
-0.00117883
6.58186e-05
-0.000326564
-0.00076798
-2.61704e-05
0.00154141
0.00127962
0.00155505
0.00261001
0.00379494
0.00574611
0.00670985
0.00995969
0.0115032
-5.04146e-05
-0.000957291
-0.00225434
-0.00142324
0.000380172
-0.000839209
-0.00116681
2.87435e-05
-0.000279645
-0.000776037
-2.45882e-05
0.00154436
0.00125994
0.00155607
0.00261883
0.00377903
0.00569539
0.00662775
0.00968093
0.011129
-5.66294e-05
-0.000964612
-0.00222034
-0.00142508
0.00035514
-0.000833931
-0.00115433
-8.66018e-06
-0.000233278
-0.000782183
-2.63007e-05
0.0015483
0.00124039
0.00155544
0.00261856
0.00376277
0.00563369
0.00653437
0.00938306
0.0107505
-6.28154e-05
-0.000972423
-0.00218572
-0.00142669
0.000329098
-0.000828857
-0.00114149
-4.62812e-05
-0.000187935
-0.000785994
-3.17771e-05
0.00155337
0.0012206
0.00155301
0.00261791
0.00374435
0.00556244
0.00642723
0.00906875
0.0103676
-6.89489e-05
-0.000980734
-0.00215053
-0.00142802
0.00030205
-0.000823855
-0.00112843
-8.39165e-05
-0.00014414
-0.000786983
-4.14632e-05
0.00155961
0.00120043
0.00154833
0.00261496
0.00372141
0.00548343
0.00630536
0.00873955
0.0099811
-7.50165e-05
-0.00098954
-0.00211481
-0.001429
0.000273962
-0.000818778
-0.00111534
-0.000121308
-0.000102432
-0.000784722
-5.57168e-05
0.00156697
0.0011798
0.00154085
0.00260964
0.00369105
0.00539761
0.00616913
0.0083964
0.00959185
-8.10162e-05
-0.000998824
-0.00207864
-0.00142955
0.000244756
-0.000813471
-0.00110245
-0.000158174
-6.33042e-05
-0.000778883
-7.48605e-05
0.00157542
0.00115867
0.00152986
0.00260272
0.0036502
0.00530452
0.00602046
0.00803912
0.00920031
-8.69545e-05
-0.00100855
-0.00204212
-0.00142957
0.000214328
-0.000807773
-0.00109003
-0.000194227
-2.72759e-05
-0.000769112
-9.91701e-05
0.00158454
0.00113767
0.00151396
0.00259597
0.00359739
0.00520261
0.00586217
0.0076676
0.00880592
-9.28453e-05
-0.00101868
-0.00200539
-0.00142893
0.000182535
-0.000801496
-0.00107833
-0.000229199
5.12888e-06
-0.000755132
-0.000128637
0.00159359
0.00111793
0.00149127
0.00259048
0.0035328
0.00508849
0.00569769
0.00728308
0.00840631
-9.87161e-05
-0.00102911
-0.00196859
-0.00142748
0.000149166
-0.000794412
-0.00106763
-0.000262852
3.34318e-05
-0.000736957
-0.000162833
0.00160163
0.00110046
0.00145983
0.00258611
0.00345724
0.00495814
0.0055302
0.00688829
0.00799731
-0.000104615
-0.00103975
-0.00193191
-0.00142504
0.000114003
-0.000786342
-0.00105813
-0.000294982
5.71879e-05
-0.000714725
-0.000201146
0.00160734
0.0010864
0.00141783
0.0025817
0.00337339
0.00480802
0.00536118
0.0064878
0.00757406
-0.000110603
-0.00105045
-0.00189555
-0.00142141
7.68641e-05
-0.000777142
-0.00105005
-0.000325528
7.61376e-05
-0.000688711
-0.000242713
0.00160902
0.00107695
0.00136453
0.00257514
0.00328466
0.00463522
0.00518964
0.00608821
0.00713261
-0.000116759
-0.00106103
-0.00185979
-0.00141636
3.75762e-05
-0.000766696
-0.00104354
-0.000354615
9.03088e-05
-0.000659651
-0.000286384
0.00160528
0.00107306
0.00129967
0.00256312
0.00319474
0.0044387
0.00501229
0.00569731
0.0066712
-0.000123198
-0.00107126
-0.00182489
-0.00140974
-4.04542e-06
-0.000754913
-0.00103862
-0.00038242
9.98325e-05
-0.000628695
-0.000331032
0.00159481
0.00107521
0.00122321
0.00254187
0.0031074
0.00421898
0.00482445
0.00532299
0.00619124
-0.000130062
-0.00108083
-0.00179111
-0.00140136
-4.81739e-05
-0.000741809
-0.00103515
-0.000409323
0.000105074
-0.000596909
-0.00037575
0.00157618
0.0010833
0.00113623
0.00250747
0.00302493
0.00397838
0.00462107
0.00497172
0.00569797
-0.000137526
-0.00108943
-0.00175875
-0.00139107
-9.48789e-05
-0.000727545
-0.00103283
-0.000436075
0.000107146
-0.000564969
-0.000419977
0.00154826
0.00109683
0.00104028
0.0024558
0.00294831
0.00372249
0.00439863
0.0046468
0.00520123
-0.000145787
-0.00109668
-0.00172808
-0.00137884
-0.000144102
-0.000712397
-0.00103119
-0.000463578
0.000107097
-0.00053339
-0.000463585
0.00151042
0.00111488
0.00093706
0.00238305
0.00287731
0.00345844
0.00414352
0.00434715
0.00471511
-0.000155071
-0.00110216
-0.00169935
-0.00136469
-0.000195694
-0.000696785
-0.00102939
-0.000492841
0.00010504
-0.000502558
-0.000506668
0.00146232
0.00113633
0.000828652
0.00228598
0.00280973
0.00319318
0.00385694
0.00406712
0.0042562
-0.000165624
-0.0011055
-0.00167275
-0.00134872
-0.000249337
-0.000681426
-0.00102618
-0.000524643
0.00010097
-0.000472266
-0.000549461
0.00140306
0.00115977
0.000717464
0.00216221
0.00274415
0.00293415
0.00353931
0.00379463
0.00384078
-0.000177713
-0.0011063
-0.00164838
-0.0013312
-0.000304474
-0.000667336
-0.00102038
-0.000559285
9.55227e-05
-0.000442171
-0.000592286
0.00133145
0.00118342
0.000606479
0.00201083
0.0026739
0.00267028
0.00319501
0.00351343
0.00347641
-0.000191612
-0.00110419
-0.00162626
-0.00131255
-0.00036027
-0.000655702
-0.0010112
-0.000596593
8.60406e-05
-0.000412353
-0.000635243
0.0012466
0.00120518
0.000499055
0.0018322
0.00259407
0.0024525
0.00283299
0.00320931
0.00315615
-0.000207568
-0.00109887
-0.00160625
-0.00129343
-0.000415579
-0.000648088
-0.000998395
-0.000635559
6.88138e-05
-0.000383128
-0.000677899
0.00114763
0.00122285
0.000398297
0.0016274
0.00249842
0.00225777
0.00246461
0.00287528
0.00286411
-0.000225807
-0.00109009
-0.00158794
-0.00127492
-0.000469237
-0.000645322
-0.000982189
-0.000674788
4.31727e-05
-0.000355219
-0.000719679
0.00103387
0.00123319
0.000307076
0.00139926
0.00238096
0.00208563
0.00210091
0.00251175
0.00257944
-0.000246507
-0.00107781
-0.00157063
-0.00125811
-0.000520417
-0.000651365
-0.000963483
-0.000713012
8.96949e-06
-0.000329938
-0.000759999
0.00090477
0.00123233
0.000228672
0.00115269
0.00223618
0.00193409
0.00175082
0.0021235
0.00228531
-0.000269802
-0.00106225
-0.00155334
-0.00124388
-0.000568607
-0.000678831
-0.000943695
-0.000749314
-3.41062e-05
-0.00030879
-0.00079852
0.000760174
0.00121677
0.000165943
0.000894265
0.00205912
0.00179861
0.00142222
0.00171649
0.00197165
-0.000295723
-0.00104394
-0.00153478
-0.00123281
-0.000613857
-0.000700607
-0.000923852
-0.000783238
-8.59918e-05
-0.000293549
-0.00083494
0.000601264
0.00118305
0.000120259
0.00063117
0.00184587
0.00167246
0.00112308
0.00129758
0.00163203
-0.000324117
-0.00102382
-0.00151379
-0.00122479
-0.000657049
-0.000708156
-0.000904623
-0.00081452
-0.000147076
-0.000286142
-0.00086828
0.00043084
0.0011277
9.04679e-05
0.00037125
0.00159438
0.00154572
0.000860765
0.000877404
0.00126236
-0.000354757
-0.00100291
-0.00148957
-0.00121893
-0.0006993
-0.000710775
-0.000887283
-0.000843123
-0.00021791
-0.000288291
-0.000897041
0.000253269
0.00104786
7.2464e-05
0.00012295
0.00130632
0.00140503
0.000637856
0.000469835
0.000862405
-0.000387333
-0.00098202
-0.00146177
-0.00121433
-0.000741371
-0.000724951
-0.000874192
-0.00086922
-0.000296435
-0.000301322
-0.000920189
7.31246e-05
0.000941924
6.00543e-05
-0.000107009
0.000987384
0.00123803
0.000450323
8.95267e-05
0.000438078
-0.000421309
-0.000961982
-0.0014305
-0.00121032
-0.000783421
-0.000764256
-0.000867839
-0.000893125
-0.000377773
-0.000325555
-0.00093803
-0.000105851
0.000809766
4.60287e-05
-0.000313817
0.000646645
0.00103548
0.000288303
-0.000250568
2.65395e-06
-0.000456013
-0.000943328
-0.00139637
-0.00120652
-0.00082481
-0.000806754
-0.000870812
-0.000916407
-0.000460648
-0.000360505
-0.0009517
-0.000279963
0.000653115
2.31471e-05
-0.000495085
0.000294426
0.000792038
0.000137588
-0.000542967
-0.000425759
-0.000490936
-0.000926346
-0.00136043
-0.00120265
-0.000864888
-0.000844825
-0.000884798
-0.000942771
-0.000545711
-0.000405188
-0.00096236
-0.000445666
0.000475199
-1.47334e-05
-0.000650926
-5.84217e-05
0.000507636
-1.72405e-05
-0.000788487
-0.000828986
-0.000525833
-0.000910348
-0.00132367
-0.00119845
-0.000902454
-0.000891007
-0.000911534
-0.000976536
-0.000632456
-0.000457039
-0.000970897
-0.000601321
0.000279518
-7.23365e-05
-0.000783135
-0.000400636
0.000186893
-0.000190241
-0.000995038
-0.0011925
-0.000560194
-0.000895733
-0.00128687
-0.00119458
-0.000937761
-0.000936748
-0.000966581
-0.00101977
-0.0007168
-0.000514867
-0.000979987
-0.000746422
6.9426e-05
-0.000153913
-0.000896334
-0.000722294
-0.000161939
-0.000391833
-0.00117493
-0.0015087
-0.000593237
-0.000883735
-0.00125089
-0.00119377
-0.000976725
-0.00101157
-0.00101256
-0.00106514
-0.000800512
-0.000582082
-0.000994819
-0.000881694
-0.000151612
-0.000262894
-0.000997889
-0.00101599
-0.000527251
-0.000627839
-0.00134295
-0.0017777
-0.000624626
-0.000874556
-0.00121714
-0.00119701
-0.00101826
-0.00105363
-0.00105874
-0.00111318
-0.00088808
-0.000660613
-0.00101889
-0.00100877
-0.000379858
-0.000400216
-0.00109596
-0.00127808
-0.000895627
-0.000897807
-0.00151309
-0.00200574
-0.000654284
-0.000868501
-0.00118673
-0.00120311
-0.00106167
-0.00109598
-0.00110565
-0.00116405
-0.000978865
-0.0007517
-0.00105434
-0.00112707
-0.000609114
-0.000563681
-0.00119859
-0.00151061
-0.00125459
-0.00119579
-0.00169649
-0.00220338
-0.000682103
-0.000865789
-0.00116013
-0.00121098
-0.00110809
-0.00114007
-0.00115196
-0.00121638
-0.00107398
-0.000854503
-0.00110146
-0.00123687
-0.00083417
-0.000749869
-0.00131337
-0.00171841
-0.00159484
-0.00151265
-0.00190038
-0.00238379
-0.000707995
-0.000866459
-0.00113796
-0.00122033
-0.00115761
-0.00118739
-0.00119873
-0.00126922
-0.00117019
-0.000966573
-0.00116194
-0.00134168
-0.00105225
-0.000953807
-0.00144445
-0.00190721
-0.0019107
-0.00183824
-0.00212693
-0.00255995
-0.000731975
-0.000870448
-0.00112095
-0.00123093
-0.00120992
-0.00123969
-0.00124689
-0.00132131
-0.00126552
-0.00108748
-0.00123831
-0.0014444
-0.00126058
-0.00116942
-0.0015929
-0.00208449
-0.00220096
-0.00216341
-0.00237348
-0.00274118
-0.000754144
-0.000877609
-0.00110999
-0.00124279
-0.00126374
-0.00129765
-0.00129866
-0.00137336
-0.00135848
-0.00121528
-0.00133093
-0.00154758
-0.00145785
-0.00139167
-0.00175813
-0.00225707
-0.00246756
-0.00248065
-0.00263426
-0.00293175
-0.000774921
-0.000887833
-0.00110578
-0.00125596
-0.00131704
-0.00136134
-0.00135671
-0.00142677
-0.00144803
-0.00134626
-0.0014387
-0.00165592
-0.00164555
-0.00161574
-0.0019376
-0.00242833
-0.0027126
-0.0027843
-0.00290311
-0.00313269
-0.000795035
-0.000901099
-0.00110864
-0.00127075
-0.00136826
-0.00143016
-0.00142308
-0.00148374
-0.00153426
-0.00147718
-0.00155896
-0.00177288
-0.00182675
-0.00183773
-0.00212779
-0.00260042
-0.00293834
-0.00307112
-0.00317502
-0.00334327
-0.000815183
-0.000917004
-0.00111894
-0.00128827
-0.00141676
-0.00150204
-0.00149871
-0.00154738
-0.00161823
-0.00160576
-0.00168876
-0.0018984
-0.0020036
-0.00205608
-0.0023253
-0.00277595
-0.00314831
-0.00333882
-0.00344531
-0.00356131
-0.000836156
-0.000935426
-0.00113498
-0.00130994
-0.00146284
-0.00157428
-0.00158284
-0.00162079
-0.00170168
-0.00173015
-0.00182493
-0.00203169
-0.00217741
-0.00227046
-0.00252721
-0.00295598
-0.00334732
-0.00358609
-0.003709
-0.00378439
-0.000858616
-0.000956176
-0.00115615
-0.00133698
-0.00150761
-0.00164513
-0.00167384
-0.00170543
-0.00178793
-0.00184976
-0.00196307
-0.00217175
-0.00234959
-0.00248073
-0.00273155
-0.00313918
-0.00353956
-0.00381404
-0.00396094
-0.00401047
-0.000883083
-0.000979184
-0.00118206
-0.00137023
-0.00155291
-0.00171373
-0.00176868
-0.00180047
-0.00188098
-0.00196673
-0.00209929
-0.00231561
-0.0025209
-0.00268671
-0.00293714
-0.00332397
-0.00372654
-0.00402591
-0.00419695
-0.00423625
-0.000910092
-0.00100476
-0.00121154
-0.00140972
-0.00160119
-0.00178047
-0.00186409
-0.00190423
-0.00198256
-0.00208367
-0.00223336
-0.00245925
-0.00268973
-0.00288805
-0.0031429
-0.00351057
-0.0039086
-0.00422503
-0.00441577
-0.00445601
-0.000939999
-0.00103333
-0.00124412
-0.001455
-0.00165457
-0.00184641
-0.00195786
-0.00201449
-0.00209279
-0.00220269
-0.00236643
-0.00260115
-0.00285362
-0.00308297
-0.00334667
-0.0036992
-0.00408722
-0.00441355
-0.00461906
-0.00466428
-0.000973028
-0.0010654
-0.00127986
-0.00150526
-0.00171384
-0.00191354
-0.0020493
-0.00212766
-0.00221089
-0.00232561
-0.0024985
-0.00274149
-0.00301162
-0.00326908
-0.00354542
-0.00388782
-0.0042641
-0.0045932
-0.00480921
-0.004859
-0.00100941
-0.00110147
-0.00131903
-0.00155944
-0.00177897
-0.00198434
-0.00213941
-0.00224019
-0.00233442
-0.00245403
-0.00263058
-0.00287938
-0.0031639
-0.00344505
-0.0037362
-0.00407327
-0.00443879
-0.00476571
-0.00498795
-0.0050413
-0.00104932
-0.00114202
-0.0013622
-0.00161661
-0.00184942
-0.00206043
-0.00222954
-0.00235087
-0.00245973
-0.00258668
-0.00276494
-0.00301459
-0.00330959
-0.00361025
-0.00391639
-0.00425255
-0.00460882
-0.00493131
-0.00515609
-0.00521284
-0.00109287
-0.0011873
-0.0014101
-0.00167644
-0.00192428
-0.00214222
-0.00232137
-0.00246049
-0.00258438
-0.00272014
-0.0029013
-0.0031488
-0.00344829
-0.00376381
-0.0040836
-0.00442223
-0.00477166
-0.00508856
-0.00531321
-0.00537311
-0.00114036
-0.00123742
-0.00146323
-0.00173939
-0.00200258
-0.00222937
-0.00241628
-0.00256959
-0.0027079
-0.00285259
-0.00303657
-0.00328207
-0.00358077
-0.00390499
-0.00423607
-0.00457859
-0.00492437
-0.00523556
-0.00545805
-0.0055196
-0.00119222
-0.00129232
-0.00152185
-0.0018061
-0.00208357
-0.00232131
-0.00251538
-0.00267875
-0.00282953
-0.00298339
-0.0031691
-0.00341153
-0.00370683
-0.00403373
-0.00437272
-0.00471873
-0.00506316
-0.00537037
-0.00558962
-0.00565175
-0.00124874
-0.00135209
-0.00158606
-0.00187736
-0.00216722
-0.00241689
-0.00261892
-0.0027897
-0.00294913
-0.00311081
-0.00329833
-0.00353521
-0.00382388
-0.00414888
-0.00449182
-0.00484022
-0.00518381
-0.00548983
-0.00570722
-0.00576975
-0.00131017
-0.00141666
-0.00165569
-0.00195369
-0.00225451
-0.00251587
-0.00272589
-0.00290311
-0.0030681
-0.00323377
-0.00342235
-0.00365262
-0.00393002
-0.00424804
-0.00459043
-0.0049394
-0.0052816
-0.00558806
-0.00580669
-0.00587089
-0.00137681
-0.00148631
-0.00173057
-0.00203501
-0.00234572
-0.00261864
-0.00283661
-0.00301871
-0.0031872
-0.00335344
-0.00353944
-0.00376172
-0.00402436
-0.00432877
-0.00466454
-0.00501095
-0.00535035
-0.00565688
-0.00587966
-0.00594863
-0.00144891
-0.00156102
-0.00181069
-0.00212172
-0.00244119
-0.00272481
-0.00295156
-0.00313791
-0.00330678
-0.00347105
-0.00365085
-0.00386071
-0.00410523
-0.00438841
-0.00470715
-0.00504528
-0.00538037
-0.00568669
-0.00591567
-0.00599435
-0.00152678
-0.00164112
-0.00189581
-0.00221312
-0.00254153
-0.00283566
-0.00307087
-0.00326176
-0.00342889
-0.0035873
-0.00375779
-0.00395001
-0.00417073
-0.00442507
-0.00471273
-0.00502807
-0.00535112
-0.00565626
-0.00589569
-0.00599347
-0.00161066
-0.00172763
-0.00198542
-0.00230897
-0.0026464
-0.00295172
-0.0031968
-0.00339246
-0.00355697
-0.00370509
-0.00386032
-0.00402883
-0.00421809
-0.00443615
-0.00468093
-0.00495389
-0.005244
-0.00552729
-0.00576481
-0.00589002
-0.00169951
-0.00181795
-0.0020798
-0.00241098
-0.00275691
-0.00307234
-0.00332931
-0.00353436
-0.00369981
-0.00383501
-0.00396381
-0.00409521
-0.00423734
-0.00440866
-0.00460667
-0.00483166
-0.00507893
-0.00531718
-0.00551454
-0.00561681
-0.00179213
-0.00191183
-0.00218028
-0.00251876
-0.00287167
-0.00319688
-0.00346724
-0.00368725
-0.00386654
-0.00400523
-0.00411024
-0.00417525
-0.00419885
-0.0042192
-0.00428373
-0.00442308
-0.00466156
-0.0049811
-0.00532236
-0.00559223
-0.00189009
-0.00201482
-0.00228666
-0.00262913
-0.00298537
-0.00331802
-0.00360353
-0.00384552
-0.00404812
-0.00421832
-0.0043825
-0.00453495
-0.00458432
-0.0044396
-0.00415979
-0.00387164
-0.00363437
-0.00346995
-0.00338076
-0.00339839
-0.00199521
-0.00212724
-0.0024003
-0.00274372
-0.00310062
-0.00343482
-0.00372905
-0.00398957
-0.00421355
-0.00436652
-0.0043779
-0.00422479
-0.00401999
-0.00385595
-0.00376783
-0.00374578
-0.00375639
-0.00377774
-0.00381495
-0.00391241
-0.00210725
-0.00222859
-0.00250979
-0.00286846
-0.00325025
-0.00362228
-0.00393966
-0.00413905
-0.00418079
-0.00412737
-0.00406883
-0.00403145
-0.00401134
-0.00398621
-0.00390891
-0.00377722
-0.00359066
-0.0033812
-0.00321562
-0.00318073
-0.0022515
-0.00237301
-0.00258581
-0.00286955
-0.00319626
-0.00351938
-0.00378382
-0.00396049
-0.00405775
-0.00409629
-0.00412744
-0.00417282
-0.00422845
-0.00432315
-0.00444243
-0.00454332
-0.00458374
-0.00450621
-0.00429072
-0.00399787
-0.00237946
-0.00253132
-0.00273701
-0.00299529
-0.00328294
-0.00356318
-0.00380488
-0.00397809
-0.00408756
-0.00413834
-0.00413615
-0.0041134
-0.0040543
-0.00395037
-0.00381359
-0.00364381
-0.00346562
-0.00330741
-0.0032276
-0.00329815
-0.00239813
-0.00254499
-0.00281154
-0.00313669
-0.00344548
-0.00369163
-0.00387013
-0.00396712
-0.00400283
-0.004014
-0.00400137
-0.00399319
-0.00399856
-0.0039933
-0.00398307
-0.00395853
-0.00391657
-0.00386841
-0.00385048
-0.00393711
0.0259506
0.0168166
0.00570072
-0.00192733
-0.00459575
-0.0044914
-0.00419619
-0.00446025
-0.00501383
-0.0054334
-0.00557897
-0.00559635
-0.0056527
-0.00579634
-0.00605275
-0.0063993
-0.00667605
-0.0068115
-0.00694574
-0.00718431
-0.00749231
-0.00779586
-0.00804721
-0.00827397
-0.00855268
-0.0088947
-0.00923284
-0.00951683
-0.00976302
-0.0100121
-0.0102729
-0.0105255
-0.0107621
-0.011005
-0.0112717
-0.0115478
-0.0118148
-0.0120842
-0.0123824
-0.0127009
-0.0130084
-0.0133018
-0.0136051
-0.0139166
-0.0142077
-0.0144876
-0.0147882
-0.0151
-0.0154043
-0.015721
-0.0160686
-0.0164147
-0.016746
-0.0170924
-0.0174416
-0.0177703
-0.0181134
-0.0184789
-0.018846
-0.0192229
-0.0196114
-0.0199945
-0.0203738
-0.0207593
-0.0211534
-0.0215562
-0.0219706
-0.0223929
-0.02282
-0.0232491
-0.0236852
-0.0241246
-0.0245712
-0.0250295
-0.0254987
-0.0259756
-0.0264584
-0.0269462
-0.027442
-0.0279473
-0.0284618
-0.0289835
-0.0295155
-0.0300567
-0.0306066
-0.0311636
-0.0317299
-0.0323046
-0.0328892
-0.0334829
-0.034085
-0.0346952
-0.0353166
-0.0359481
-0.0365883
-0.0372337
-0.0379025
-0.0385557
-0.0392009
-0.0398786
0.0244165
0.0166262
0.00578349
-0.00179292
-0.00450821
-0.00444549
-0.00416825
-0.00444324
-0.00500319
-0.00542602
-0.00557303
-0.00559091
-0.00564739
-0.00579106
-0.00604774
-0.00639503
-0.00667255
-0.0068083
-0.00694263
-0.00718142
-0.00748973
-0.00779362
-0.0080452
-0.00827204
-0.0085508
-0.00889297
-0.0092313
-0.00951541
-0.00976165
-0.0100108
-0.0102716
-0.0105243
-0.0107611
-0.011004
-0.0112707
-0.0115469
-0.0118139
-0.0120834
-0.0123816
-0.0127002
-0.0130077
-0.0133011
-0.0136045
-0.0139161
-0.0142072
-0.0144871
-0.0147877
-0.0150996
-0.0154038
-0.0157205
-0.0160681
-0.0164144
-0.0167457
-0.0170921
-0.0174412
-0.01777
-0.0181131
-0.0184785
-0.0188457
-0.0192226
-0.0196111
-0.0199942
-0.0203735
-0.020759
-0.0211531
-0.021556
-0.0219704
-0.0223927
-0.0228198
-0.0232489
-0.023685
-0.0241244
-0.024571
-0.0250294
-0.0254985
-0.0259755
-0.0264583
-0.0269461
-0.0274418
-0.0279472
-0.0284617
-0.0289834
-0.0295154
-0.0300565
-0.0306065
-0.0311635
-0.0317298
-0.0323044
-0.0328891
-0.0334828
-0.0340849
-0.0346951
-0.0353166
-0.035948
-0.0365882
-0.0372336
-0.0379024
-0.0385556
-0.0392009
-0.0398786
0.0232204
0.0165111
0.00597836
-0.00154348
-0.00436986
-0.00439365
-0.00413868
-0.00441891
-0.0049847
-0.00541299
-0.00556406
-0.00558479
-0.0056429
-0.00578697
-0.0060434
-0.00639079
-0.00666883
-0.00680501
-0.00693967
-0.00717873
-0.00748727
-0.00779143
-0.00804325
-0.00827023
-0.00854912
-0.00889148
-0.00922997
-0.00951417
-0.00976045
-0.0100096
-0.0102705
-0.0105233
-0.0107601
-0.0110031
-0.0112698
-0.0115461
-0.0118131
-0.0120827
-0.0123809
-0.0126996
-0.0130071
-0.0133006
-0.0136039
-0.0139156
-0.0142067
-0.0144866
-0.0147873
-0.0150991
-0.0154034
-0.0157201
-0.0160678
-0.016414
-0.0167453
-0.0170917
-0.017441
-0.0177697
-0.0181128
-0.0184783
-0.0188454
-0.0192223
-0.0196108
-0.019994
-0.0203733
-0.0207588
-0.0211529
-0.0215558
-0.0219702
-0.0223925
-0.0228196
-0.0232487
-0.0236849
-0.0241243
-0.0245709
-0.0250292
-0.0254984
-0.0259753
-0.0264581
-0.026946
-0.0274417
-0.0279471
-0.0284616
-0.0289833
-0.0295153
-0.0300564
-0.0306064
-0.0311634
-0.0317297
-0.0323044
-0.032889
-0.0334827
-0.0340848
-0.034695
-0.0353165
-0.035948
-0.0365881
-0.0372335
-0.0379024
-0.0385556
-0.0392008
-0.0398786
0.0221142
0.0163578
0.00620059
-0.00124359
-0.00419064
-0.00432525
-0.00409622
-0.0043801
-0.00495244
-0.00538839
-0.00554697
-0.00557454
-0.00563756
-0.00578354
-0.00603935
-0.00638554
-0.00666349
-0.00680073
-0.00693653
-0.00717597
-0.00748428
-0.00778839
-0.00804058
-0.00826804
-0.00854727
-0.0088898
-0.00922843
-0.00951279
-0.00975922
-0.0100085
-0.0102694
-0.0105222
-0.010759
-0.011002
-0.0112689
-0.0115452
-0.0118123
-0.0120819
-0.0123802
-0.0126989
-0.0130065
-0.0132999
-0.0136034
-0.0139151
-0.0142062
-0.0144861
-0.0147868
-0.0150987
-0.015403
-0.0157197
-0.0160674
-0.0164137
-0.016745
-0.0170914
-0.0174407
-0.0177694
-0.0181125
-0.018478
-0.0188452
-0.0192221
-0.0196106
-0.0199938
-0.0203731
-0.0207586
-0.0211527
-0.0215556
-0.02197
-0.0223923
-0.0228194
-0.0232485
-0.0236847
-0.0241241
-0.0245707
-0.0250291
-0.0254982
-0.0259752
-0.026458
-0.0269458
-0.0274416
-0.0279469
-0.0284614
-0.0289831
-0.0295152
-0.0300563
-0.0306063
-0.0311633
-0.0317296
-0.0323043
-0.0328889
-0.0334826
-0.0340847
-0.0346949
-0.0353164
-0.0359479
-0.036588
-0.0372335
-0.0379023
-0.0385555
-0.0392008
-0.0398787
0.020998
0.0161292
0.00641577
-0.000929897
-0.00399474
-0.00424887
-0.00404741
-0.00433079
-0.00490716
-0.00535101
-0.00551947
-0.00555763
-0.00562941
-0.00577994
-0.00603533
-0.00637876
-0.00665564
-0.0067948
-0.00693316
-0.00717336
-0.00748077
-0.0077841
-0.00803665
-0.00826506
-0.00854489
-0.0088875
-0.00922621
-0.00951095
-0.00975779
-0.0100072
-0.010268
-0.0105208
-0.0107577
-0.0110009
-0.0112678
-0.0115441
-0.0118112
-0.0120809
-0.0123793
-0.0126981
-0.0130057
-0.0132992
-0.0136027
-0.0139144
-0.0142057
-0.0144855
-0.0147862
-0.0150982
-0.0154025
-0.0157192
-0.016067
-0.0164133
-0.0167446
-0.017091
-0.0174403
-0.017769
-0.0181122
-0.0184777
-0.0188449
-0.0192218
-0.0196103
-0.0199935
-0.0203728
-0.0207583
-0.0211525
-0.0215554
-0.0219698
-0.0223921
-0.0228192
-0.0232483
-0.0236845
-0.0241239
-0.0245705
-0.0250289
-0.0254981
-0.0259751
-0.0264579
-0.0269457
-0.0274415
-0.0279468
-0.0284613
-0.028983
-0.0295151
-0.0300562
-0.0306062
-0.0311632
-0.0317295
-0.0323042
-0.0328888
-0.0334825
-0.0340847
-0.0346949
-0.0353163
-0.0359478
-0.036588
-0.0372334
-0.0379022
-0.0385555
-0.0392008
-0.0398789
0.0198789
0.0158353
0.00662411
-0.000608461
-0.0037884
-0.0041689
-0.00399863
-0.00427841
-0.00485547
-0.00530562
-0.00548414
-0.00553468
-0.0056179
-0.00577523
-0.00603076
-0.00637026
-0.00664526
-0.00678716
-0.00692955
-0.00717106
-0.00747698
-0.00777875
-0.00803158
-0.00826137
-0.0085419
-0.00888422
-0.00922279
-0.00950821
-0.00975596
-0.0100057
-0.0102663
-0.010519
-0.0107563
-0.0109996
-0.0112664
-0.0115427
-0.0118099
-0.0120797
-0.0123782
-0.012697
-0.0130048
-0.0132984
-0.0136019
-0.0139137
-0.0142049
-0.0144848
-0.0147856
-0.0150976
-0.0154019
-0.0157187
-0.0160664
-0.0164128
-0.0167441
-0.0170906
-0.0174399
-0.0177686
-0.0181118
-0.0184773
-0.0188445
-0.0192214
-0.0196101
-0.0199932
-0.0203726
-0.0207581
-0.0211522
-0.0215551
-0.0219695
-0.0223919
-0.022819
-0.0232481
-0.0236843
-0.0241237
-0.0245703
-0.0250287
-0.0254979
-0.0259749
-0.0264577
-0.0269455
-0.0274413
-0.0279467
-0.0284612
-0.0289829
-0.029515
-0.0300561
-0.0306061
-0.0311631
-0.0317294
-0.0323041
-0.0328887
-0.0334824
-0.0340846
-0.0346948
-0.0353162
-0.0359477
-0.0365879
-0.0372333
-0.0379021
-0.0385554
-0.0392008
-0.0398792
0.0187752
0.015489
0.00682356
-0.000282523
-0.00357274
-0.00408546
-0.0039512
-0.00422572
-0.00480098
-0.00525625
-0.00544437
-0.0055077
-0.00560351
-0.00576899
-0.00602515
-0.00636025
-0.006633
-0.00677827
-0.00692571
-0.00716898
-0.00747304
-0.00777274
-0.00802588
-0.00825741
-0.00853858
-0.00887995
-0.00921788
-0.00950419
-0.00975341
-0.0100038
-0.0102642
-0.0105169
-0.0107545
-0.0109983
-0.011265
-0.0115409
-0.0118082
-0.0120781
-0.0123767
-0.0126956
-0.0130035
-0.0132973
-0.0136009
-0.0139127
-0.0142041
-0.014484
-0.0147848
-0.0150968
-0.0154012
-0.015718
-0.0160658
-0.0164122
-0.0167436
-0.0170901
-0.0174395
-0.0177682
-0.0181113
-0.0184769
-0.0188441
-0.0192211
-0.0196097
-0.0199929
-0.0203722
-0.0207578
-0.0211519
-0.0215548
-0.0219693
-0.0223916
-0.0228188
-0.0232479
-0.0236841
-0.0241235
-0.0245701
-0.0250285
-0.0254977
-0.0259747
-0.0264575
-0.0269454
-0.0274411
-0.0279465
-0.028461
-0.0289827
-0.0295148
-0.030056
-0.030606
-0.031163
-0.0317293
-0.032304
-0.0328886
-0.0334823
-0.0340845
-0.0346947
-0.0353161
-0.0359476
-0.0365878
-0.0372332
-0.0379021
-0.0385554
-0.0392008
-0.0398795
0.0177023
0.0150943
0.00700511
4.34137e-05
-0.00334756
-0.00399668
-0.00390452
-0.00417321
-0.00474468
-0.00520437
-0.00540189
-0.005478
-0.00558683
-0.00576118
-0.00601847
-0.00634912
-0.00661955
-0.0067686
-0.00692166
-0.00716688
-0.00746891
-0.00776636
-0.00802002
-0.00825369
-0.00853538
-0.00887505
-0.00921165
-0.00949879
-0.00974988
-0.0100012
-0.0102615
-0.0105141
-0.0107525
-0.0109969
-0.0112635
-0.011539
-0.0118063
-0.0120764
-0.012375
-0.0126937
-0.0130018
-0.0132959
-0.0135997
-0.0139115
-0.014203
-0.0144831
-0.0147839
-0.0150958
-0.0154003
-0.0157172
-0.016065
-0.0164115
-0.016743
-0.0170895
-0.0174389
-0.0177676
-0.0181108
-0.0184764
-0.0188436
-0.0192206
-0.0196093
-0.0199925
-0.0203719
-0.0207574
-0.0211516
-0.0215545
-0.021969
-0.0223913
-0.0228185
-0.0232476
-0.0236839
-0.0241233
-0.0245699
-0.0250283
-0.0254975
-0.0259745
-0.0264573
-0.0269452
-0.0274409
-0.0279463
-0.0284608
-0.0289826
-0.0295147
-0.0300558
-0.0306058
-0.0311628
-0.0317292
-0.0323038
-0.0328884
-0.0334822
-0.0340843
-0.0346946
-0.035316
-0.0359475
-0.0365877
-0.0372331
-0.037902
-0.0385553
-0.0392008
-0.0398799
0.0166704
0.0146512
0.00715996
0.000366817
-0.00311097
-0.00389971
-0.00385753
-0.00412129
-0.0046871
-0.00515051
-0.00535731
-0.0054461
-0.00556816
-0.00575197
-0.00601092
-0.00633724
-0.00660534
-0.00675836
-0.00691733
-0.00716461
-0.00746449
-0.00775968
-0.00801414
-0.00825035
-0.00853257
-0.00887
-0.00920459
-0.00949228
-0.00974537
-0.00999781
-0.010258
-0.0105108
-0.0107501
-0.0109953
-0.0112618
-0.011537
-0.0118043
-0.0120747
-0.012373
-0.0126914
-0.0129996
-0.0132942
-0.0135981
-0.01391
-0.0142017
-0.0144821
-0.0147828
-0.0150947
-0.0153992
-0.0157162
-0.016064
-0.0164106
-0.0167422
-0.0170888
-0.0174382
-0.0177669
-0.0181101
-0.0184757
-0.018843
-0.0192201
-0.0196088
-0.019992
-0.0203714
-0.020757
-0.0211511
-0.0215541
-0.0219686
-0.022391
-0.0228182
-0.0232473
-0.0236836
-0.024123
-0.0245696
-0.025028
-0.0254972
-0.0259743
-0.0264571
-0.0269449
-0.0274407
-0.0279461
-0.0284606
-0.0289824
-0.0295145
-0.0300556
-0.0306056
-0.0311627
-0.031729
-0.0323037
-0.0328883
-0.033482
-0.0340842
-0.0346944
-0.0353159
-0.0359474
-0.0365876
-0.037233
-0.0379018
-0.0385553
-0.0392008
-0.0398804
0.0156851
0.0141622
0.00728293