/*--------------------------------*- C++ -*----------------------------------*\
| =========                 |                                                 |
| \\      /  F ield         | OpenFOAM: The Open Source CFD Toolbox           |
|  \\    /   O peration     | Version:  2506                                  |
|   \\  /    A nd           | Website:  www.openfoam.com                      |
|    \\/     M anipulation  |                                                 |
\*---------------------------------------------------------------------------*/
FoamFile
{
    version     2.0;
    format      ascii;
    arch        "LSB;label=32;scalar=64";
    class       surfaceScalarField;
    location    "2.55";
    object      phi;
}
// * * * * * * * * * * * * * * * * * * * * * * * * * * * * * * * * * * * * * //

dimensions      [0 3 -1 0 0 0 0];

oriented        oriented;

internalField   nonuniform List<scalar> 
19000
(
1.17245e-06
3.95461e-07
1.13985e-06
-4.64412e-07
1.18905e-06
-2.07532e-07
1.19377e-06
4.22944e-07
1.12206e-06
4.92361e-07
1.12071e-06
-3.07424e-07
1.17958e-06
-2.50032e-08
1.14221e-06
-8.39519e-07
1.18105e-06
1.01381e-07
1.15675e-06
1.16172e-07
1.14812e-06
1.76342e-07
1.15213e-06
5.92639e-07
1.12391e-06
3.3794e-07
1.12655e-06
2.88499e-07
1.12828e-06
-2.24501e-08
1.12185e-06
-8.38651e-08
1.13463e-06
-1.00781e-07
1.11579e-06
-3.11018e-07
1.13367e-06
-3.5053e-08
-3.34312e-07
1.07215e-06
1.22553e-06
3.94188e-07
1.19321e-06
-4.3209e-07
1.24332e-06
-2.57641e-07
1.25289e-06
4.13374e-07
1.17754e-06
5.67714e-07
1.1752e-06
-3.05085e-07
1.23107e-06
-8.08783e-08
1.19466e-06
-8.03106e-07
1.23203e-06
6.40153e-08
1.21563e-06
1.32568e-07
1.19692e-06
1.9505e-07
1.21537e-06
5.74195e-07
1.17731e-06
3.75995e-07
1.18999e-06
2.75815e-07
1.18088e-06
-1.3331e-08
1.18985e-06
-9.28439e-08
1.18431e-06
-9.5241e-08
1.18707e-06
-3.1377e-07
1.17812e-06
-2.61105e-08
-3.15699e-07
1.15951e-06
1.28103e-06
3.95937e-07
1.25184e-06
-4.02901e-07
1.29618e-06
-3.0198e-07
1.31383e-06
3.95731e-07
1.24059e-06
6.4095e-07
1.23492e-06
-2.99411e-07
1.28483e-06
-1.30788e-07
1.25588e-06
-7.74161e-07
1.28289e-06
3.70017e-08
1.27993e-06
1.35536e-07
1.24888e-06
2.26097e-07
1.27152e-06
5.51554e-07
1.23776e-06
4.09755e-07
1.24718e-06
2.66393e-07
1.2415e-06
-7.64427e-09
1.2491e-06
-1.00448e-07
1.24739e-06
-9.35308e-08
1.24745e-06
-3.13827e-07
1.24882e-06
-2.74791e-08
-2.94041e-07
1.22716e-06
1.34007e-06
3.99974e-07
1.31663e-06
-3.79469e-07
1.34969e-06
-3.35034e-07
1.37399e-06
3.71425e-07
1.3107e-06
7.04247e-07
1.30118e-06
-2.89897e-07
1.34207e-06
-1.71677e-07
1.32442e-06
-7.56504e-07
1.33858e-06
2.28409e-08
1.34515e-06
1.28962e-07
1.30821e-06
2.63039e-07
1.32206e-06
5.37708e-07
1.30456e-06
4.27256e-07
1.30835e-06
2.62598e-07
1.30758e-06
-6.87755e-09
1.31344e-06
-1.063e-07
1.31378e-06
-9.38738e-08
1.31163e-06
-3.11681e-07
1.31458e-06
-3.04253e-08
-2.70774e-07
1.29131e-06
1.40353e-06
4.04798e-07
1.3867e-06
-3.6264e-07
1.40568e-06
-3.54007e-07
1.433e-06
3.44105e-07
1.38661e-06
7.50634e-07
1.37348e-06
-2.76767e-07
1.40379e-06
-2.0199e-07
1.39639e-06
-7.49107e-07
1.40059e-06
1.86469e-08
1.40935e-06
1.20199e-07
1.37553e-06
2.96862e-07
1.37852e-06
5.34714e-07
1.37503e-06
4.3075e-07
1.37867e-06
2.58951e-07
1.37859e-06
-6.7927e-09
1.38404e-06
-1.11746e-07
1.3841e-06
-9.39359e-08
1.37972e-06
-3.073e-07
1.38283e-06
-3.35379e-08
-2.46273e-07
1.35833e-06
1.47181e-06
4.08659e-07
1.46057e-06
-3.51396e-07
1.46607e-06
-3.59512e-07
1.49264e-06
3.17544e-07
1.46614e-06
7.77125e-07
1.45052e-06
-2.61142e-07
1.47027e-06
-2.21745e-07
1.46891e-06
-7.47746e-07
1.46766e-06
1.98965e-08
1.4743e-06
1.1356e-07
1.44786e-06
3.23307e-07
1.44534e-06
5.3723e-07
1.44919e-06
4.26895e-07
1.45516e-06
2.52988e-07
1.45444e-06
-6.07087e-09
1.45853e-06
-1.15843e-07
1.45792e-06
-9.33255e-08
1.45074e-06
-3.00116e-07
1.45403e-06
-3.68309e-08
-2.20591e-07
1.42835e-06
1.54463e-06
4.1025e-07
1.53705e-06
-3.4382e-07
1.53221e-06
-3.54668e-07
1.55563e-06
2.94122e-07
1.54716e-06
7.85597e-07
1.53092e-06
-2.44908e-07
1.54134e-06
-2.32159e-07
1.54126e-06
-7.4767e-07
1.53786e-06
2.32973e-08
1.54204e-06
1.09378e-07
1.52308e-06
3.42267e-07
1.52037e-06
5.39947e-07
1.52755e-06
4.19712e-07
1.5351e-06
2.45437e-07
1.53379e-06
-4.76e-09
1.536e-06
-1.18051e-07
1.53453e-06
-9.18584e-08
1.52445e-06
-2.90035e-07
1.5277e-06
-4.00818e-08
-1.94102e-07
1.50121e-06
1.62121e-06
4.09167e-07
1.61559e-06
-3.38194e-07
1.60434e-06
-3.43424e-07
1.62394e-06
2.74527e-07
1.62857e-06
7.80967e-07
1.61362e-06
-2.29957e-07
1.61661e-06
-2.35156e-07
1.6144e-06
-7.45457e-07
1.61039e-06
2.73058e-08
1.61347e-06
1.063e-07
1.60103e-06
3.54703e-07
1.6007e-06
5.40278e-07
1.60969e-06
4.10728e-07
1.61761e-06
2.3751e-07
1.61566e-06
-2.80673e-09
1.61601e-06
-1.18403e-07
1.61384e-06
-8.96884e-08
1.60106e-06
-2.77255e-07
1.60409e-06
-4.31074e-08
-1.67322e-07
1.57731e-06
1.7009e-06
4.05845e-07
1.6962e-06
-3.33495e-07
1.68195e-06
-3.29177e-07
1.6981e-06
2.58378e-07
1.71053e-06
7.68535e-07
1.69804e-06
-2.17462e-07
1.69574e-06
-2.32861e-07
1.68989e-06
-7.39605e-07
1.68574e-06
3.14511e-08
1.68874e-06
1.03301e-07
1.68209e-06
3.61352e-07
1.68473e-06
5.37641e-07
1.69488e-06
4.00577e-07
1.7024e-06
2.29989e-07
1.69978e-06
-1.783e-10
1.69835e-06
-1.16979e-07
1.69586e-06
-8.71999e-08
1.68083e-06
-2.62222e-07
1.6835e-06
-4.57789e-08
-1.40875e-07
1.65706e-06
1.78347e-06
4.01099e-07
1.77928e-06
-3.29312e-07
1.76429e-06
-3.14183e-07
1.7777e-06
2.44972e-07
1.79392e-06
7.52313e-07
1.78416e-06
-2.07704e-07
1.7785e-06
-2.27205e-07
1.76901e-06
-7.30112e-07
1.76485e-06
3.56148e-08
1.76792e-06
1.00224e-07
1.7664e-06
3.62878e-07
1.77168e-06
5.32358e-07
1.78262e-06
3.89639e-07
1.78933e-06
2.23281e-07
1.78619e-06
2.95512e-09
1.78308e-06
-1.13865e-07
1.78059e-06
-8.47134e-08
1.76392e-06
-2.4555e-07
1.76611e-06
-4.79704e-08
-1.15456e-07
1.74069e-06
1.86919e-06
3.95654e-07
1.86539e-06
-3.25514e-07
1.85081e-06
-2.996e-07
1.86211e-06
2.33673e-07
1.87976e-06
7.34666e-07
1.87239e-06
-2.00336e-07
1.86488e-06
-2.19692e-07
1.85244e-06
-7.17676e-07
1.8484e-06
3.96594e-08
1.85122e-06
9.7402e-08
1.85397e-06
3.60129e-07
1.86124e-06
5.25088e-07
1.87273e-06
3.78142e-07
1.87847e-06
2.17544e-07
1.87513e-06
6.29386e-09
1.8705e-06
-1.09229e-07
1.86815e-06
-8.23691e-08
1.8505e-06
-2.27896e-07
1.85203e-06
-4.94996e-08
-9.17357e-08
1.82831e-06
1.95856e-06
3.89931e-07
1.95505e-06
-3.22e-07
1.94126e-06
-2.8581e-07
1.95099e-06
2.23942e-07
1.96897e-06
7.16681e-07
1.96335e-06
-1.94709e-07
1.95502e-06
-2.11361e-07
1.9404e-06
-7.0306e-07
1.9367e-06
4.3363e-08
1.93888e-06
9.52139e-08
1.94495e-06
3.54059e-07
1.95348e-06
5.16561e-07
1.96544e-06
3.66185e-07
1.97021e-06
2.12775e-07
1.96695e-06
9.55448e-09
1.96105e-06
-1.03338e-07
1.95879e-06
-8.01093e-08
1.94078e-06
-2.09883e-07
1.9414e-06
-5.01147e-08
-7.02604e-08
1.91992e-06
2.05205e-06
3.84069e-07
2.04866e-06
-3.18612e-07
2.03561e-06
-2.72761e-07
2.04427e-06
2.15285e-07
2.06227e-06
6.98679e-07
2.05768e-06
-1.90112e-07
2.04917e-06
-2.02855e-07
2.03292e-06
-6.86811e-07
2.0298e-06
4.64885e-08
2.03111e-06
9.39001e-08
2.03965e-06
3.45518e-07
2.04879e-06
5.07423e-07
2.06119e-06
3.53783e-07
2.06509e-06
2.08879e-07
2.06207e-06
1.25695e-08
2.05528e-06
-9.65407e-08
2.05288e-06
-7.77078e-08
2.03505e-06
-1.92054e-07
2.03452e-06
-4.95864e-08
-5.13318e-08
2.01559e-06
2.15002e-06
3.7805e-07
2.14656e-06
-3.15153e-07
2.13404e-06
-2.60243e-07
2.14207e-06
2.07253e-07
2.16015e-06
6.80599e-07
2.15594e-06
-1.859e-07
2.14763e-06
-1.94539e-07
2.13005e-06
-6.69235e-07
2.12769e-06
4.8846e-08
2.12801e-06
9.35785e-08
2.13841e-06
3.35126e-07
2.14768e-06
4.98154e-07
2.16053e-06
3.40929e-07
2.16372e-06
2.05691e-07
2.16097e-06
1.5322e-08
2.15366e-06
-8.9239e-08
2.15078e-06
-7.4822e-08
2.13359e-06
-1.74864e-07
2.13183e-06
-4.783e-08
-3.49264e-08
2.11543e-06
2.25273e-06
3.71806e-07
2.24902e-06
-3.11439e-07
2.23683e-06
-2.48052e-07
2.24458e-06
1.99507e-07
2.26293e-06
6.62242e-07
2.25859e-06
-1.8156e-07
2.25066e-06
-1.86611e-07
2.23189e-06
-6.50465e-07
2.23044e-06
5.03031e-08
2.22971e-06
9.43046e-08
2.24155e-06
3.23281e-07
2.25065e-06
4.89055e-07
2.26395e-06
3.27637e-07
2.26665e-06
2.02985e-07
2.26403e-06
1.79433e-08
2.25665e-06
-8.18554e-08
2.2529e-06
-7.1075e-08
2.23668e-06
-1.58641e-07
2.23383e-06
-4.49851e-08
-2.07037e-08
2.21961e-06
2.36041e-06
3.65269e-07
2.3563e-06
-3.07331e-07
2.34432e-06
-2.36068e-07
2.35196e-06
1.91861e-07
2.37081e-06
6.43395e-07
2.36598e-06
-1.76729e-07
2.35856e-06
-1.79193e-07
2.33863e-06
-6.3053e-07
2.33816e-06
5.07683e-08
2.33636e-06
9.61024e-08
2.34942e-06
3.10223e-07
2.35821e-06
4.80267e-07
2.37186e-06
3.13992e-07
2.37436e-06
2.00477e-07
2.37163e-06
2.06767e-08
2.36456e-06
-7.47827e-08
2.35967e-06
-6.61847e-08
2.34455e-06
-1.43524e-07
2.3409e-06
-4.13288e-08
-8.19937e-09
2.32839e-06
2.47327e-06
3.58396e-07
2.46867e-06
-3.02735e-07
2.45687e-06
-2.24266e-07
2.46444e-06
1.84292e-07
2.48396e-06
6.23881e-07
2.47841e-06
-1.71181e-07
2.4716e-06
-1.72383e-07
2.45048e-06
-6.09413e-07
2.45107e-06
5.0178e-08
2.44821e-06
9.89686e-08
2.46232e-06
2.96109e-07
2.47079e-06
4.71794e-07
2.48461e-06
3.00177e-07
2.48727e-06
1.97817e-07
2.48408e-06
2.38592e-08
2.47765e-06
-6.83521e-08
2.47155e-06
-6.00772e-08
2.45738e-06
-1.29358e-07
2.45331e-06
-3.72582e-08
3.02299e-09
2.44209e-06
2.59153e-06
3.51155e-07
2.58639e-06
-2.97593e-07
2.57483e-06
-2.12702e-07
2.58223e-06
1.76889e-07
2.60254e-06
6.0357e-07
2.59614e-06
-1.64781e-07
2.59004e-06
-1.66277e-07
2.56772e-06
-5.87093e-07
2.56939e-06
4.84986e-08
2.5655e-06
1.02865e-07
2.58052e-06
2.81087e-07
2.58879e-06
4.63525e-07
2.60249e-06
2.86477e-07
2.60568e-06
1.94627e-07
2.60169e-06
2.78445e-08
2.59611e-06
-6.27642e-08
2.58897e-06
-5.29455e-08
2.57532e-06
-1.15706e-07
2.57129e-06
-3.32229e-08
1.32445e-08
2.56107e-06
2.71546e-06
3.43527e-07
2.70972e-06
-2.91854e-07
2.69851e-06
-2.01488e-07
2.70559e-06
1.69808e-07
2.72678e-06
5.82371e-07
2.71945e-06
-1.5745e-07
2.71414e-06
-1.60962e-07
2.69061e-06
-5.63564e-07
2.69337e-06
4.57341e-08
2.68853e-06
1.07708e-07
2.70428e-06
2.65339e-07
2.71256e-06
4.55245e-07
2.72578e-06
2.73254e-07
2.72986e-06
1.90546e-07
2.7248e-06
3.29072e-08
2.72006e-06
-5.80269e-08
2.71232e-06
-4.52026e-08
2.69865e-06
-1.02032e-07
2.695e-06
-2.95755e-08
2.25331e-08
2.68571e-06
2.8453e-06
3.35492e-07
2.83892e-06
-2.85469e-07
2.8282e-06
-1.90766e-07
2.83478e-06
1.63225e-07
2.85694e-06
5.60212e-07
2.84862e-06
-1.49133e-07
2.84416e-06
-1.56505e-07
2.81946e-06
-5.38857e-07
2.82325e-06
4.19375e-08
2.81761e-06
1.13356e-07
2.83384e-06
2.49103e-07
2.84242e-06
4.46666e-07
2.85477e-06
2.60902e-07
2.86004e-06
1.85281e-07
2.85378e-06
3.91688e-08
2.84968e-06
-5.39328e-08
2.84187e-06
-3.73849e-08
2.82774e-06
-8.79014e-08
2.8246e-06
-2.64411e-08
3.07601e-08
2.81637e-06
2.98135e-06
3.27034e-07
2.97426e-06
-2.78376e-07
2.96418e-06
-1.80687e-07
2.9701e-06
1.57304e-07
2.99328e-06
5.37036e-07
2.98394e-06
-1.39792e-07
2.98037e-06
-1.52934e-07
2.95456e-06
-5.13055e-07
2.95928e-06
3.72216e-08
2.95304e-06
1.196e-07
2.96946e-06
2.32681e-07
2.97867e-06
4.37455e-07
2.98977e-06
2.498e-07
2.9964e-06
1.78651e-07
2.98902e-06
4.65505e-08
2.98515e-06
-5.00598e-08
2.97783e-06
-3.00675e-08
2.96305e-06
-7.31212e-08
2.96023e-06
-2.36253e-08
3.76331e-08
2.95336e-06
3.12391e-06
3.18134e-07
3.11604e-06
-2.70507e-07
3.10675e-06
-1.71398e-07
3.11187e-06
1.52184e-07
3.13609e-06
5.1281e-07
3.12572e-06
-1.29414e-07
3.12301e-06
-1.50227e-07
3.09625e-06
-4.863e-07
3.10171e-06
3.17658e-08
3.09515e-06
1.26164e-07
3.1114e-06
2.16427e-07
3.12158e-06
4.27279e-07
3.13113e-06
2.40245e-07
3.13913e-06
1.70651e-07
3.13092e-06
5.47618e-08
3.1267e-06
-4.58428e-08
3.12036e-06
-2.37296e-08
3.10507e-06
-5.78235e-08
3.10209e-06
-2.06463e-08
4.28087e-08
3.09691e-06
3.27327e-06
3.08777e-07
3.26455e-06
-2.61791e-07
3.25619e-06
-1.63035e-07
3.2604e-06
1.47971e-07
3.28567e-06
4.87537e-07
3.27429e-06
-1.18033e-07
3.27237e-06
-1.483e-07
3.24487e-06
-4.58799e-07
3.25081e-06
2.58199e-08
3.24427e-06
1.32704e-07
3.25997e-06
2.00724e-07
3.2714e-06
4.15857e-07
3.27923e-06
2.32414e-07
3.28843e-06
1.61448e-07
3.27983e-06
6.33663e-08
3.27469e-06
-4.07078e-08
3.26961e-06
-1.86514e-08
3.25419e-06
-4.24039e-08
3.25046e-06
-1.69134e-08
4.60468e-08
3.24722e-06
3.42975e-06
2.98954e-07
3.42013e-06
-2.52162e-07
3.41281e-06
-1.55716e-07
3.41604e-06
1.44736e-07
3.44232e-06
4.61258e-07
3.43003e-06
-1.05739e-07
3.42873e-06
-1.47008e-07
3.40076e-06
-4.30827e-07
3.40688e-06
1.97e-08
3.40074e-06
1.38842e-07
3.41553e-06
1.8594e-07
3.42839e-06
4.02997e-07
3.43446e-06
2.26339e-07
3.44454e-06
1.51375e-07
3.43606e-06
7.18385e-08
3.42955e-06
-3.41945e-08
3.42574e-06
-1.48453e-08
3.41076e-06
-2.74202e-08
3.40579e-06
-1.19443e-08
4.73889e-08
3.40445e-06
3.5937e-06
2.88661e-07
3.58311e-06
-2.41564e-07
3.57693e-06
-1.4954e-07
3.57915e-06
1.42521e-07
3.60634e-06
4.34061e-07
3.59329e-06
-9.2686e-08
3.59242e-06
-1.46138e-07
3.56432e-06
-4.02726e-07
3.57025e-06
1.37694e-08
3.56489e-06
1.44198e-07
3.57845e-06
1.72385e-07
3.5928e-06
3.88647e-07
3.59724e-06
2.21896e-07
3.60776e-06
1.40855e-07
3.5999e-06
7.96996e-08
3.59179e-06
-2.6082e-08
3.58903e-06
-1.20871e-08
3.57505e-06
-1.34352e-08
3.56858e-06
-5.48276e-09
4.71972e-08
3.56878e-06
3.76547e-06
2.77899e-07
3.75386e-06
-2.29959e-07
3.7489e-06
-1.44577e-07
3.7501e-06
1.41318e-07
3.77807e-06
4.06097e-07
3.76448e-06
-7.91014e-08
3.76376e-06
-1.45414e-07
3.73593e-06
-3.74903e-07
3.74128e-06
8.42152e-09
3.73704e-06
1.48436e-07
3.74917e-06
1.60257e-07
3.7649e-06
3.72916e-07
3.76798e-06
2.18823e-07
3.77845e-06
1.30385e-07
3.77164e-06
8.65069e-08
3.76191e-06
-1.63535e-08
3.75979e-06
-9.96864e-09
3.74732e-06
-9.67013e-10
3.73937e-06
2.46931e-09
4.6142e-08
3.74043e-06
3.94541e-06
2.66676e-07
3.93278e-06
-2.17331e-07
3.92907e-06
-1.40861e-07
3.92931e-06
1.41072e-07
3.95783e-06
3.77582e-07
3.944e-06
-6.52784e-08
3.94309e-06
-1.44503e-07
3.91601e-06
-3.47821e-07
3.9204e-06
4.03531e-09
3.91749e-06
1.51344e-07
3.92815e-06
1.49592e-07
3.94502e-06
3.56053e-07
3.94704e-06
2.16804e-07
3.957e-06
1.20426e-07
3.95158e-06
9.19255e-08
3.9404e-06
-5.17112e-09
3.9384e-06
-7.97089e-09
3.92788e-06
9.55191e-09
3.91867e-06
1.16737e-08
4.509e-08
3.91973e-06
4.13392e-06
2.55008e-07
4.12028e-06
-2.03693e-07
4.1178e-06
-1.38381e-07
4.1172e-06
1.41668e-07
4.14598e-06
3.48804e-07
4.13228e-06
-5.15783e-08
4.1308e-06
-1.43023e-07
4.10496e-06
-3.21983e-07
4.10807e-06
9.27151e-10
4.10653e-06
1.52882e-07
4.11585e-06
1.40277e-07
4.13353e-06
3.38378e-07
4.1348e-06
2.15532e-07
4.14386e-06
1.11366e-07
4.14002e-06
9.57687e-08
4.12772e-06
7.1243e-09
4.12526e-06
-5.50755e-09
4.11698e-06
1.7825e-08
4.10701e-06
2.16496e-08
4.4947e-08
4.10715e-06
4.3314e-06
2.42915e-07
4.31679e-06
-1.89088e-07
4.31548e-06
-1.37068e-07
4.31423e-06
1.42916e-07
4.3429e-06
3.2013e-07
4.32975e-06
-3.84217e-08
4.32728e-06
-1.40561e-07
4.30317e-06
-2.97871e-07
4.30482e-06
-7.25276e-10
4.30451e-06
1.53198e-07
4.31268e-06
1.32103e-07
4.33086e-06
3.20201e-07
4.33163e-06
2.1476e-07
4.3395e-06
1.03496e-07
4.33729e-06
9.7983e-08
4.3243e-06
2.01083e-08
4.32092e-06
-2.12175e-09
4.31485e-06
2.38936e-08
4.30485e-06
3.16518e-08
4.64133e-08
4.30338e-06
4.53826e-06
2.30428e-07
4.52277e-06
-1.73596e-07
4.52249e-06
-1.36791e-07
4.52086e-06
1.44553e-07
4.54899e-06
2.91998e-07
4.53683e-06
-2.62673e-08
4.53297e-06
-1.36701e-07
4.51096e-06
-2.75861e-07
4.51121e-06
-9.70229e-10
4.51181e-06
1.52598e-07
4.51906e-06
1.24851e-07
4.53748e-06
3.01779e-07
4.53793e-06
2.14312e-07
4.5444e-06
9.70225e-08
4.54376e-06
9.86248e-08
4.53057e-06
3.33018e-08
4.52593e-06
2.51747e-09
4.52176e-06
2.80623e-08
4.51258e-06
4.08355e-08
4.97683e-08
4.50922e-06
4.75495e-06
2.17591e-07
4.7387e-06
-1.57341e-07
4.73925e-06
-1.3734e-07
4.73757e-06
1.46232e-07
4.76466e-06
2.64904e-07
4.75399e-06
-1.55911e-08
4.74836e-06
-1.3108e-07
4.7286e-06
-2.56097e-07
4.72777e-06
-1.35491e-10
4.72891e-06
1.51455e-07
4.73539e-06
1.18365e-07
4.75386e-06
2.83315e-07
4.75413e-06
2.14039e-07
4.75901e-06
9.21434e-08
4.75986e-06
9.77727e-08
4.74694e-06
4.62282e-08
4.74087e-06
8.58629e-09
4.73811e-06
3.08236e-08
4.73044e-06
4.85038e-08
5.47052e-08
4.7255e-06
4.98193e-06
2.04461e-07
4.96508e-06
-1.40494e-07
4.96616e-06
-1.38425e-07
4.96486e-06
1.47535e-07
4.99038e-06
2.39383e-07
4.98166e-06
-6.8742e-09
4.97405e-06
-1.23461e-07
4.9563e-06
-2.38354e-07
4.95499e-06
1.17414e-09
4.95633e-06
1.50122e-07
4.96212e-06
1.12575e-07
4.98046e-06
2.64966e-07
4.98068e-06
2.13824e-07
4.98379e-06
8.903e-08
4.98601e-06
9.55609e-08
4.9738e-06
5.84292e-08
4.96639e-06
1.59982e-08
4.96439e-06
3.28289e-08
4.95861e-06
5.42784e-08
6.04632e-08
4.95285e-06
5.21966e-06
1.91116e-07
5.20245e-06
-1.23283e-07
5.20368e-06
-1.39658e-07
5.20324e-06
1.47975e-07
5.22665e-06
2.15981e-07
5.22033e-06
-5.54721e-10
5.21074e-06
-1.13874e-07
5.19449e-06
-2.22103e-07
5.19332e-06
2.33839e-09
5.19461e-06
1.48833e-07
5.19968e-06
1.07508e-07
5.21776e-06
2.46888e-07
5.21803e-06
2.1355e-07
5.21926e-06
8.7806e-08
5.2226e-06
9.22185e-08
5.21163e-06
6.94037e-08
5.20306e-06
2.4565e-08
5.20126e-06
3.46246e-08
5.19731e-06
5.82355e-08
6.6103e-08
5.19167e-06
5.46865e-06
1.77651e-07
5.45136e-06
-1.05985e-07
5.45227e-06
-1.4057e-07
5.45322e-06
1.47019e-07
5.47406e-06
1.95147e-07
5.47032e-06
3.18411e-09
5.45924e-06
-1.02797e-07
5.44379e-06
-2.06652e-07
5.44312e-06
3.00796e-09
5.44435e-06
1.47607e-07
5.44853e-06
1.03323e-07
5.46617e-06
2.2925e-07
5.46665e-06
2.13066e-07
5.46594e-06
8.85177e-08
5.47014e-06
8.80247e-08
5.46086e-06
7.86756e-08
5.4514e-06
3.40297e-08
5.44941e-06
3.66131e-08
5.44693e-06
6.07205e-08
7.09019e-08
5.44213e-06
5.72943e-06
1.64178e-07
5.71237e-06
-8.89261e-08
5.71239e-06
-1.40592e-07
5.71534e-06
1.44068e-07
5.73338e-06
1.77116e-07
5.7319e-06
4.66393e-09
5.72013e-06
-9.1035e-08
5.70493e-06
-1.91444e-07
5.70481e-06
3.127e-09
5.70601e-06
1.46406e-07
5.7091e-06
1.0023e-07
5.72607e-06
2.12279e-07
5.727e-06
2.12143e-07
5.72448e-06
9.10325e-08
5.72917e-06
8.33397e-08
5.72203e-06
8.58126e-08
5.71192e-06
4.41351e-08
5.70948e-06
3.90545e-08
5.7081e-06
6.21012e-08
7.45536e-08
5.70445e-06
6.00255e-06
1.50823e-07
5.98609e-06
-7.24627e-08
5.98455e-06
-1.39056e-07
5.99012e-06
1.38495e-07
6.00551e-06
1.61726e-07
6.00543e-06
4.74178e-09
5.99378e-06
-7.93831e-08
5.9785e-06
-1.76157e-07
5.97867e-06
2.95147e-09
5.97986e-06
1.45222e-07
5.9816e-06
9.84896e-08
5.9978e-06
1.9607e-07
5.99959e-06
2.10357e-07
5.99559e-06
9.50319e-08
6.00033e-06
7.85973e-08
5.99559e-06
9.05541e-08
5.98522e-06
5.4503e-08
5.98206e-06
4.22141e-08
5.98152e-06
6.26464e-08
7.70513e-08
5.97902e-06
6.2886e-06
1.37711e-07
6.2731e-06
-5.69606e-08
6.26946e-06
-1.35419e-07
6.27783e-06
1.3013e-07
6.29124e-06
1.48311e-07
6.29164e-06
4.34543e-09
6.28044e-06
-6.8189e-08
6.2648e-06
-1.60514e-07
6.2646e-06
3.15052e-09
6.26566e-06
1.44165e-07
6.26617e-06
9.79791e-08
6.28187e-06
1.80367e-07
6.28509e-06
2.07136e-07
6.28006e-06
1.00062e-07
6.28431e-06
7.43461e-08
6.28202e-06
9.28511e-08
6.2719e-06
6.46172e-08
6.26779e-06
4.63299e-08
6.26784e-06
6.25916e-08
7.84775e-08
6.26642e-06
6.58822e-06
1.24961e-07
6.57403e-06
-4.27731e-08
6.56832e-06
-1.29704e-07
6.57875e-06
1.19694e-07
6.5911e-06
1.35958e-07
6.59142e-06
4.0292e-09
6.58042e-06
-5.71835e-08
6.56389e-06
-1.43992e-07
6.56305e-06
3.99147e-09
6.56434e-06
1.42878e-07
6.56391e-06
9.84062e-08
6.57919e-06
1.65092e-07
6.58422e-06
2.021e-07
6.57862e-06
1.05666e-07
6.5818e-06
7.11633e-08
6.58183e-06
9.28253e-08
6.57253e-06
7.39163e-08
6.56734e-06
5.1515e-08
6.56766e-06
6.22739e-08
7.88492e-08
6.56729e-06
6.90207e-06
1.12677e-07
6.88957e-06
-3.02653e-08
6.88212e-06
-1.22257e-07
6.89361e-06
1.08202e-07
6.90544e-06
1.24132e-07
6.90576e-06
3.71037e-09
6.89456e-06
-4.59838e-08
6.87711e-06
-1.26539e-07
6.87605e-06
5.04751e-09
6.87783e-06
1.41097e-07
6.87644e-06
9.97967e-08
6.89077e-06
1.5076e-07
6.8976e-06
1.95274e-07
6.89188e-06
1.1138e-07
6.89366e-06
6.93847e-08
6.8955e-06
9.09898e-08
6.88769e-06
8.17208e-08
6.88154e-06
5.7665e-08
6.88164e-06
6.21808e-08
7.82028e-08
6.88228e-06
7.23087e-06
1.00945e-07
7.22035e-06
-1.97482e-08
7.21158e-06
-1.13483e-07
7.22329e-06
9.64887e-08
7.23467e-06
1.12753e-07
7.23532e-06
3.05588e-09
7.22413e-06
-3.47898e-08
7.20612e-06
-1.08534e-07
7.20461e-06
6.56051e-09
7.20683e-06
1.3888e-07
7.20457e-06
1.02054e-07
7.21745e-06
1.37883e-07
7.22585e-06
1.86876e-07
7.22051e-06
1.16719e-07
7.22068e-06
6.92162e-08
7.22374e-06
8.79287e-08
7.21788e-06
8.75828e-08
7.21114e-06
6.44026e-08
7.21055e-06
6.27669e-08
7.67466e-08
7.21201e-06
7.57534e-06
8.98349e-08
7.56691e-06
-1.1325e-08
7.55736e-06
-1.03925e-07
7.56867e-06
8.51694e-08
7.5794e-06
1.02029e-07
7.58073e-06
1.72142e-09
7.57022e-06
-2.42793e-08
7.55175e-06
-9.00644e-08
7.54924e-06
9.07331e-09
7.55173e-06
1.36391e-07
7.54893e-06
1.04848e-07
7.56007e-06
1.26748e-07
7.56966e-06
1.77288e-07
7.56512e-06
1.21257e-07
7.5637e-06
7.06385e-08
7.56731e-06
8.43116e-08
7.56361e-06
9.12891e-08
7.55685e-06
7.11577e-08
7.55531e-06
6.43089e-08
7.48961e-08
7.55716e-06
7.93625e-06
7.93996e-08
7.9297e-06
-4.78107e-09
7.92018e-06
-9.44001e-08
7.93059e-06
7.47613e-08
7.94064e-06
9.19763e-08
7.94245e-06
-9.099e-11
7.93387e-06
-1.56985e-08
7.91501e-06
-7.12065e-08
7.9104e-06
1.36894e-08
7.91307e-06
1.33722e-07
7.91016e-06
1.07752e-07
7.91947e-06
1.17441e-07
7.92979e-06
1.66971e-07
7.92635e-06
1.24697e-07
7.92358e-06
7.34063e-08
7.92713e-06
8.07562e-08
7.92551e-06
9.29154e-08
7.91932e-06
7.73439e-08
7.91685e-06
6.67778e-08
7.3161e-08
7.91859e-06
8.31439e-06
6.9686e-08
8.30935e-06
2.59637e-10
8.30046e-06
-8.55084e-08
8.30976e-06
6.54687e-08
8.31936e-06
8.23717e-08
8.32094e-06
-1.66866e-09
8.31455e-06
-9.30893e-09
8.29519e-06
-5.18449e-08
8.28839e-06
2.04901e-08
8.2916e-06
1.30507e-07
8.28901e-06
1.10346e-07
8.29648e-06
1.09968e-07
8.30705e-06
1.56401e-07
8.30491e-06
1.26841e-07
8.30115e-06
7.7161e-08
8.30414e-06
7.77643e-08
8.30432e-06
9.27375e-08
8.29917e-06
8.24937e-08
8.29605e-06
6.98978e-08
7.19513e-08
8.29726e-06
8.71059e-06
6.07555e-08
8.70706e-06
3.79159e-09
8.69821e-06
-7.66546e-08
8.70667e-06
5.70056e-08
8.71552e-06
7.35168e-08
8.71642e-06
-2.56556e-09
8.7086e-06
-1.49103e-09
8.68921e-06
-3.24557e-08
8.68392e-06
2.5788e-08
8.68832e-06
1.26108e-07
8.68624e-06
1.12424e-07
8.69188e-06
1.04323e-07
8.70235e-06
1.45938e-07
8.70154e-06
1.27646e-07
8.69724e-06
8.14639e-08
8.69931e-06
7.56975e-08
8.70088e-06
9.11615e-08
8.69709e-06
8.62839e-08
8.69371e-06
7.32815e-08
7.14589e-08
8.6942e-06
9.12571e-06
5.26619e-08
9.12387e-06
5.63745e-09
9.11418e-06
-6.69638e-08
9.12129e-06
4.9896e-08
9.12363e-06
7.11719e-08
9.1196e-06
1.46877e-09
9.11441e-06
3.69802e-09
9.10207e-06
-2.01227e-08
9.09881e-06
2.90556e-08
9.10407e-06
1.20845e-07
9.10263e-06
1.13863e-07
9.10662e-06
1.00333e-07
9.11654e-06
1.36014e-07
9.11714e-06
1.27055e-07
9.1127e-06
8.59034e-08
9.11363e-06
7.47644e-08
9.11611e-06
8.86838e-08
9.11383e-06
8.85591e-08
9.11057e-06
7.65439e-08
7.16508e-08
9.11038e-06
9.5607e-06
4.54222e-08
9.55998e-06
6.35233e-09
9.54984e-06
-5.68147e-08
9.55523e-06
4.45006e-08
9.55761e-06
6.87937e-08
9.55307e-06
6.01198e-09
9.54828e-06
8.48767e-09
9.53726e-06
-9.10211e-09
9.53406e-06
3.22562e-08
9.5396e-06
1.15298e-07
9.53886e-06
1.14606e-07
9.54152e-06
9.76751e-08
9.55061e-06
1.26918e-07
9.55248e-06
1.25186e-07
9.54836e-06
9.00239e-08
9.54818e-06
7.49492e-08
9.55102e-06
8.58419e-08
9.55026e-06
8.93202e-08
9.54747e-06
7.93288e-08
7.2334e-08
9.54679e-06
1.00165e-05
3.90414e-08
1.00164e-05
6.47961e-09
1.00065e-05
-4.69437e-08
1.00111e-05
3.9908e-08
1.0014e-05
6.59193e-08
1.00088e-05
1.11719e-08
1.00037e-05
1.35837e-08
9.99375e-06
8.75135e-10
9.9904e-06
3.56043e-08
9.99586e-06
1.09846e-07
9.99587e-06
1.14589e-07
9.99751e-06
9.60342e-08
1.00056e-05
1.18794e-07
1.00085e-05
1.22276e-07
1.00051e-05
9.3483e-08
1.0004e-05
7.60383e-08
1.00067e-05
8.31355e-08
1.00073e-05
8.87531e-08
1.00053e-05
8.13482e-08
7.32513e-08
1.00043e-05
1.04942e-05
3.35137e-08
1.04946e-05
6.0493e-09
1.04852e-05
-3.7554e-08
1.04892e-05
3.59221e-08
1.04922e-05
6.29278e-08
1.04868e-05
1.66045e-08
1.04813e-05
1.90713e-08
1.04721e-05
1.00099e-08
1.04688e-05
3.89551e-08
1.0474e-05
1.04636e-07
1.04747e-05
1.1389e-07
1.04756e-05
9.5148e-08
1.04826e-05
1.11774e-07
1.04863e-05
1.1855e-07
1.04838e-05
9.60444e-08
1.04821e-05
7.7709e-08
1.04843e-05
8.09066e-08
1.04859e-05
8.71949e-08
1.04848e-05
8.24318e-08
7.41396e-08
1.04839e-05
1.09947e-05
2.88082e-08
1.09956e-05
5.17836e-09
1.09869e-05
-2.888e-08
1.099e-05
3.28399e-08
1.09931e-05
5.98625e-08
1.09877e-05
2.19429e-08
1.09819e-05
2.48527e-08
1.09734e-05
1.85219e-08
1.09701e-05
4.22558e-08
1.0975e-05
9.97316e-08
1.09763e-05
1.12588e-07
1.09767e-05
9.47805e-08
1.09826e-05
1.05883e-07
1.09869e-05
1.14273e-07
1.09854e-05
9.75565e-08
1.09834e-05
7.96405e-08
1.0985e-05
7.92936e-08
1.09872e-05
8.50444e-08
1.09871e-05
8.2569e-08
7.47545e-08
1.09864e-05
1.15193e-05
2.48665e-08
1.15205e-05
3.99278e-09
1.15125e-05
-2.09354e-08
1.15145e-05
3.08788e-08
1.15176e-05
5.67698e-08
1.15128e-05
2.67924e-08
1.15068e-05
3.07786e-08
1.14988e-05
2.65344e-08
1.14955e-05
4.5574e-08
1.15001e-05
9.51404e-08
1.1502e-05
1.10712e-07
1.1502e-05
9.47036e-08
1.15068e-05
1.01079e-07
1.15113e-05
1.09778e-07
1.15109e-05
9.80095e-08
1.1509e-05
8.14848e-08
1.151e-05
7.82915e-08
1.15124e-05
8.2644e-08
1.15131e-05
8.18825e-08
7.49284e-08
1.1513e-05
1.20691e-05
2.16204e-08
1.20703e-05
2.77329e-09
1.20631e-05
-1.37803e-08
1.20639e-05
3.01195e-08
1.20668e-05
5.38236e-08
1.20628e-05
3.08369e-08
1.2057e-05
3.65451e-08
1.20495e-05
3.41007e-08
1.2046e-05
4.89867e-08
1.20502e-05
9.0938e-08
1.20527e-05
1.08282e-07
1.20527e-05
9.47166e-08
1.20565e-05
9.72834e-08
1.20609e-05
1.05308e-07
1.20614e-05
9.75434e-08
1.206e-05
8.29282e-08
1.20605e-05
7.77759e-08
1.20629e-05
8.0255e-08
1.20642e-05
8.05395e-08
7.46084e-08
1.20645e-05
1.26452e-05
1.89878e-08
1.26461e-05
1.90864e-09
1.26397e-05
-7.38295e-09
1.26394e-05
3.03959e-08
1.2642e-05
5.1222e-08
1.2639e-05
3.38971e-08
1.26337e-05
4.17789e-08
1.26266e-05
4.1214e-08
1.2623e-05
5.2578e-08
1.26267e-05
8.7214e-08
1.26296e-05
1.05382e-07
1.26297e-05
9.46145e-08
1.26327e-05
9.43498e-08
1.26369e-05
1.01043e-07
1.26382e-05
9.63245e-08
1.26373e-05
8.3809e-08
1.26375e-05
7.75407e-08
1.26397e-05
7.80605e-08
1.26415e-05
7.87167e-08
7.38288e-08
1.26423e-05
1.32491e-05
1.68715e-08
1.32492e-05
1.77769e-09
1.32436e-05
-1.84982e-09
1.32426e-05
3.14178e-08
1.32446e-05
4.92644e-08
1.32425e-05
3.60008e-08
1.32381e-05
4.61898e-08
1.32315e-05
4.77757e-08
1.32277e-05
5.63547e-08
1.32309e-05
8.40795e-08
1.32341e-05
1.02153e-07
1.32345e-05
9.4218e-08
1.32367e-05
9.20938e-08
1.32407e-05
9.71263e-08
1.32425e-05
9.45211e-08
1.32422e-05
8.4082e-08
1.32424e-05
7.73748e-08
1.32443e-05
7.61212e-08
1.32464e-05
7.65876e-08
7.26491e-08
1.32476e-05
1.38819e-05
1.51586e-08
1.38814e-05
2.28741e-09
1.38766e-05
2.87201e-09
1.38752e-05
3.28774e-08
1.38762e-05
4.82719e-08
1.38747e-05
3.75104e-08
1.38713e-05
4.96045e-08
1.38654e-05
5.36073e-08
1.38615e-05
6.02361e-08
1.3864e-05
8.16581e-08
1.38674e-05
9.87464e-08
1.38682e-05
9.34132e-08
1.387e-05
9.03106e-08
1.38735e-05
9.36247e-08
1.38756e-05
9.23419e-08
1.3876e-05
8.37404e-08
1.38762e-05
7.71152e-08
1.38779e-05
7.44112e-08
1.38802e-05
7.42896e-08
7.1128e-08
1.38818e-05
1.45451e-05
1.37615e-08
1.45438e-05
3.51303e-09
1.454e-05
6.73427e-09
1.45385e-05
3.43973e-08
1.45384e-05
4.83114e-08
1.4537e-05
3.89319e-08
1.45345e-05
5.2058e-08
1.45297e-05
5.84456e-08
1.45258e-05
6.41059e-08
1.45275e-05
8.00196e-08
1.45309e-05
9.53336e-08
1.45321e-05
9.22135e-08
1.45336e-05
8.87652e-08
1.45368e-05
9.04977e-08
1.45391e-05
8.99864e-08
1.454e-05
8.28451e-08
1.45405e-05
7.66147e-08
1.4542e-05
7.29005e-08
1.45444e-05
7.19155e-08
6.93051e-08
1.45462e-05
1.524e-05
1.2604e-08
1.52384e-05
5.1832e-09
1.52351e-05
9.9874e-09
1.52337e-05
3.57673e-08
1.52328e-05
4.92394e-08
1.5231e-05
4.07142e-08
1.52293e-05
5.37472e-08
1.52257e-05
6.21395e-08
1.5222e-05
6.77506e-08
1.52229e-05
7.91106e-08
1.52261e-05
9.21437e-08
1.52277e-05
9.06529e-08
1.52291e-05
8.73097e-08
1.5232e-05
8.76572e-08
1.52344e-05
8.75407e-08
1.52357e-05
8.1549e-08
1.52366e-05
7.57548e-08
1.52379e-05
7.15216e-08
1.52403e-05
6.95755e-08
6.71984e-08
1.52424e-05
1.59683e-05
1.16475e-08
1.59664e-05
7.07511e-09
1.59635e-05
1.28968e-08
1.59624e-05
3.68448e-08
1.59609e-05
5.0791e-08
1.59585e-05
4.30622e-08
1.59572e-05
5.5012e-08
1.59547e-05
6.47206e-08
1.59515e-05
7.09075e-08
1.59518e-05
7.87777e-08
1.59546e-05
8.93715e-08
1.59565e-05
8.87964e-08
1.59579e-05
8.58495e-08
1.59605e-05
8.50607e-08
1.59631e-05
8.49933e-08
1.59646e-05
7.99796e-08
1.59659e-05
7.45394e-08
1.59673e-05
7.01128e-08
1.59694e-05
6.73976e-08
6.485e-08
1.59718e-05
1.67314e-05
1.08909e-08
1.67293e-05
9.11894e-09
1.67266e-05
1.56263e-08
1.67259e-05
3.75766e-08
1.67241e-05
5.25872e-08
1.67211e-05
4.59929e-08
1.67199e-05
5.62409e-08
1.67183e-05
6.63364e-08
1.67158e-05
7.33524e-08
1.67158e-05
7.88439e-08
1.67181e-05
8.70676e-08
1.67201e-05
8.68039e-08
1.67216e-05
8.43032e-08
1.6724e-05
8.26684e-08
1.67266e-05
8.23784e-08
1.67285e-05
7.81465e-08
1.67299e-05
7.308e-08
1.67315e-05
6.85141e-08
1.67335e-05
6.53878e-08
6.23927e-08
1.6736e-05
1.75309e-05
1.03426e-08
1.7529e-05
1.10593e-08
1.75262e-05
1.83993e-08
1.75257e-05
3.81057e-08
1.75239e-05
5.43073e-08
1.75206e-05
4.93293e-08
1.75191e-05
5.77637e-08
1.75182e-05
6.7234e-08
1.75165e-05
7.49983e-08
1.75163e-05
7.90701e-08
1.75182e-05
8.51931e-08
1.75202e-05
8.48366e-08
1.75218e-05
8.26464e-08
1.75241e-05
8.04077e-08
1.75267e-05
7.97689e-08
1.75288e-05
7.60364e-08
1.75304e-05
7.14327e-08
1.75322e-05
6.67224e-08
1.75342e-05
6.3394e-08
5.99992e-08
1.75366e-05
1.83687e-05
1.00164e-08
1.83669e-05
1.28347e-08
1.83641e-05
2.12402e-08
1.83635e-05
3.86172e-08
1.83621e-05
5.57299e-08
1.83586e-05
5.28068e-08
1.83567e-05
5.9695e-08
1.83562e-05
6.77725e-08
1.83553e-05
7.59057e-08
1.83552e-05
7.91859e-08
1.83566e-05
8.36971e-08
1.83585e-05
8.29526e-08
1.83602e-05
8.09374e-08
1.83624e-05
7.82186e-08
1.8365e-05
7.71763e-08
1.83673e-05
7.37197e-08
1.83692e-05
6.9544e-08
1.83711e-05
6.48264e-08
1.83732e-05
6.12841e-08
5.77077e-08
1.83755e-05
1.92465e-05
9.91604e-09
1.92449e-05
1.43994e-08
1.9242e-05
2.41349e-08
1.92414e-05
3.92803e-08
1.92403e-05
5.68311e-08
1.9237e-05
5.61206e-08
1.92347e-05
6.19608e-08
1.92342e-05
6.82946e-08
1.92338e-05