/*--------------------------------*- C++ -*----------------------------------*\
| =========                 |                                                 |
| \\      /  F ield         | OpenFOAM: The Open Source CFD Toolbox           |
|  \\    /   O peration     | Version:  2506                                  |
|   \\  /    A nd           | Website:  www.openfoam.com                      |
|    \\/     M anipulation  |                                                 |
\*---------------------------------------------------------------------------*/
FoamFile
{
    version     2.0;
    format      ascii;
    arch        "LSB;label=32;scalar=64";
    class       volVectorField;
    location    "2.55";
    object      U;
}
// * * * * * * * * * * * * * * * * * * * * * * * * * * * * * * * * * * * * * //

dimensions      [0 1 -1 0 0 0 0];

internalField   nonuniform List<vector> 
9600
(
(0.876548 0.00401161 0)
(1.11964 -0.00533924 0)
(0.841629 -0.00199019 0)
(1.18179 0.00558205 0)
(0.875953 0.00620036 0)
(1.03459 -0.00476469 0)
(0.890966 0.000448839 0)
(1.12046 -0.0157362 0)
(0.843653 0.00254182 0)
(1.16634 0.00211622 0)
(0.829094 0.00385767 0)
(1.12077 0.015202 0)
(0.861436 0.00882367 0)
(1.05548 0.00875663 0)
(0.878857 -0.000751597 0)
(1.04744 -0.00307339 0)
(0.87693 -0.00369275 0)
(1.05827 -0.013443 0)
(0.854701 -0.00121123 0)
(1.07545 -0.01729 0)
(0.883912 0.00396359 0)
(1.10848 -0.00490078 0)
(0.850253 -0.00278924 0)
(1.16872 0.00535846 0)
(0.891248 0.00741843 0)
(1.02398 -0.00465264 0)
(0.901737 -0.000985589 0)
(1.10318 -0.0149194 0)
(0.856534 0.00168052 0)
(1.14469 0.00269635 0)
(0.853786 0.00432442 0)
(1.09118 0.0149131 0)
(0.901658 0.00987418 0)
(1.01715 0.00858953 0)
(0.929836 -0.000584893 0)
(0.997738 -0.00312127 0)
(0.946211 -0.00373013 0)
(0.986767 -0.013511 0)
(0.951989 -0.00100338 0)
(0.969572 -0.0189345 0)
(0.898348 0.00396191 0)
(1.09056 -0.00454476 0)
(0.86908 -0.0033957 0)
(1.14167 0.0052558 0)
(0.917647 0.00858985 0)
(1.00973 -0.00467049 0)
(0.92026 -0.00186112 0)
(1.07854 -0.0142636 0)
(0.885279 0.00089584 0)
(1.10625 0.00297724 0)
(0.898526 0.00491641 0)
(1.04203 0.0143809 0)
(0.943886 0.0110134 0)
(0.98476 0.00816535 0)
(0.959868 -0.000319321 0)
(0.976525 -0.00346259 0)
(0.969152 -0.00373145 0)
(0.975127 -0.0132162 0)
(0.969261 -0.00155963 0)
(0.974154 -0.0151232 0)
(0.91765 0.0039939 0)
(1.06963 -0.0042636 0)
(0.895358 -0.00384262 0)
(1.10554 0.00500923 0)
(0.947059 0.0095377 0)
(0.998039 -0.0045591 0)
(0.941465 -0.00258489 0)
(1.05308 -0.0138775 0)
(0.92078 0.000506259 0)
(1.06552 0.00288185 0)
(0.941899 0.00573399 0)
(1.00146 0.0138512 0)
(0.966486 0.0116895 0)
(0.975075 0.00797472 0)
(0.970797 -0.000242055 0)
(0.976217 -0.00373492 0)
(0.976001 -0.00363228 0)
(0.978252 -0.0133424 0)
(0.973908 -0.00138659 0)
(0.977734 -0.0138436 0)
(0.93859 0.00404072 0)
(1.04953 -0.00404426 0)
(0.923543 -0.00413751 0)
(1.06809 0.00464735 0)
(0.97232 0.0103132 0)
(0.992824 -0.00436045 0)
(0.960148 -0.00317478 0)
(1.03255 -0.013684 0)
(0.951463 0.000375079 0)
(1.03456 0.00265575 0)
(0.970423 0.00660761 0)
(0.981572 0.0136277 0)
(0.975545 0.0119517 0)
(0.977989 0.00789873 0)
(0.978569 -0.000230144 0)
(0.980698 -0.00393329 0)
(0.982592 -0.00364102 0)
(0.982104 -0.0132119 0)
(0.978764 -0.00147198 0)
(0.980051 -0.0128429 0)
(0.957961 0.00408781 0)
(1.03322 -0.00389247 0)
(0.948396 -0.00427272 0)
(1.03648 0.00428215 0)
(0.989786 0.0108381 0)
(0.993962 -0.00412265 0)
(0.97404 -0.00358913 0)
(1.01889 -0.0136205 0)
(0.97155 0.000368809 0)
(1.01615 0.00248167 0)
(0.984437 0.00733383 0)
(0.977026 0.0136675 0)
(0.980892 0.011937 0)
(0.984205 0.0077524 0)
(0.986518 -0.000198947 0)
(0.986281 -0.00411442 0)
(0.988478 -0.00363614 0)
(0.986244 -0.0129355 0)
(0.982625 -0.00163861 0)
(0.98274 -0.01166 0)
(0.973557 0.00411824 0)
(1.02187 -0.00379367 0)
(0.967118 -0.00426436 0)
(1.01443 0.00395452 0)
(0.999616 0.0110789 0)
(0.998465 -0.0038669 0)
(0.983767 -0.00382842 0)
(1.01081 -0.0136156 0)
(0.981689 0.000426048 0)
(1.00673 0.00238277 0)
(0.989968 0.00786184 0)
(0.979174 0.0137662 0)
(0.986283 0.0117743 0)
(0.990632 0.00753923 0)
(0.993468 -0.000161645 0)
(0.991944 -0.00422931 0)
(0.993171 -0.00359365 0)
(0.990051 -0.012548 0)
(0.985558 -0.00182455 0)
(0.985034 -0.0103551 0)
(0.984633 0.00412167 0)
(1.01488 -0.00372431 0)
(0.979577 -0.00415883 0)
(1.0017 0.00367484 0)
(1.00407 0.011089 0)
(1.00319 -0.00362176 0)
(0.990827 -0.00392807 0)
(1.00608 -0.0135958 0)
(0.985502 0.000508209 0)
(1.00188 0.00231847 0)
(0.992017 0.00821986 0)
(0.98313 0.0138115 0)
(0.991745 0.0115492 0)
(0.996466 0.00729692 0)
(0.998973 -0.000110955 0)
(0.996768 -0.00426457 0)
(0.996921 -0.0035259 0)
(0.993195 -0.0120533 0)
(0.987973 -0.00198837 0)
(0.986862 -0.00899254 0)
(0.991694 0.00409861 0)
(1.01079 -0.00366939 0)
(0.987218 -0.00400167 0)
(0.99574 0.00344369 0)
(1.00558 0.0109513 0)
(1.00645 -0.00341198 0)
(0.996189 -0.00392414 0)
(1.00309 -0.0135177 0)
(0.986484 0.000593613 0)
(0.998919 0.00225708 0)
(0.992968 0.00843525 0)
(0.987108 0.0137804 0)
(0.99664 0.0112867 0)
(1.00129 0.00705234 0)
(1.00312 -3.36849e-05 0)
(1.00041 -0.00423222 0)
(0.999772 -0.00344933 0)
(0.995688 -0.0114482 0)
(0.990013 -0.00211988 0)
(0.988417 -0.00763779 0)
(0.995844 0.0040565 0)
(1.00827 -0.00362234 0)
(0.991775 -0.00382449 0)
(0.993648 0.00325319 0)
(1.00575 0.0107359 0)
(1.00805 -0.00324594 0)
(1.0002 -0.00384997 0)
(1.00106 -0.0133721 0)
(0.986726 0.000677406 0)
(0.996842 0.00219026 0)
(0.993561 0.00852387 0)
(0.990493 0.0136753 0)
(1.00054 0.0109923 0)
(1.00487 0.00683102 0)
(1.00601 6.44062e-05 0)
(1.00292 -0.00414306 0)
(1.00174 -0.00336464 0)
(0.997555 -0.0107531 0)
(0.991703 -0.00222925 0)
(0.989767 -0.00633647 0)
(0.998178 0.00400397 0)
(1.00653 -0.00357986 0)
(0.994551 -0.00364837 0)
(0.993334 0.00309361 0)
(1.00542 0.0104887 0)
(1.00845 -0.0031205 0)
(1.003 -0.00373456 0)
(0.99968 -0.0131684 0)
(0.987024 0.000758365 0)
(0.995433 0.00212344 0)
(0.993974 0.00850297 0)
(0.993054 0.013507 0)
(1.00332 0.0106774 0)
(1.00724 0.00664397 0)
(1.00783 0.000168591 0)
(1.0045 -0.00399761 0)
(1.00296 -0.00327594 0)
(0.998841 -0.0100036 0)
(0.993048 -0.00232065 0)
(0.990908 -0.00511834 0)
(0.999477 0.00394721 0)
(1.00526 -0.00354087 0)
(0.99629 -0.00348049 0)
(0.993644 0.00295813 0)
(1.00497 0.0102335 0)
(1.00823 -0.00302647 0)
(1.00477 -0.00359886 0)
(0.998803 -0.0129205 0)
(0.987477 0.000833775 0)
(0.994623 0.00206691 0)
(0.994294 0.0083934 0)
(0.994797 0.0132954 0)
(1.00507 0.0103494 0)
(1.00858 0.00649003 0)
(1.00881 0.000268511 0)
(1.00536 -0.00379357 0)
(1.00361 -0.00319645 0)
(0.99965 -0.00923681 0)
(0.994075 -0.00237218 0)
(0.991836 -0.00400378 0)
(1.0002 0.00388894 0)
(1.00438 -0.00350394 0)
(0.99737 -0.00332173 0)
(0.994063 0.00284026 0)
(1.0046 0.00997875 0)
(1.00779 -0.0029526 0)
(1.00577 -0.00345609 0)
(0.998298 -0.0126396 0)
(0.987984 0.000899737 0)
(0.994277 0.00202897 0)
(0.994583 0.00821558 0)
(0.99587 0.0130623 0)
(1.00604 0.0100085 0)
(1.00919 0.00636438 0)
(1.0092 0.000364193 0)
(1.00575 -0.00354947 0)
(1.00388 -0.00312219 0)
(1.00012 -0.0084769 0)
(0.99484 -0.00235926 0)
(0.992567 -0.00300838 0)
(1.00061 0.00382946 0)
(1.00381 -0.00346707 0)
(0.998004 -0.00317016 0)
(0.994412 0.00273343 0)
(1.00436 0.00972487 0)
(1.00736 -0.00288793 0)
(1.00624 -0.00331444 0)
(0.998046 -0.0123324 0)
(0.988464 0.000953111 0)
(0.994214 0.00201131 0)
(0.994875 0.00798975 0)
(0.996461 0.0128223 0)
(1.00648 0.00965331 0)
(1.00933 0.00626448 0)
(1.00924 0.000449744 0)
(1.00585 -0.00328625 0)
(1.00392 -0.00303053 0)
(1.00037 -0.00774531 0)
(0.995417 -0.0022812 0)
(0.993137 -0.00213596 0)
(1.00083 0.00376808 0)
(1.00345 -0.00342824 0)
(0.99835 -0.00302328 0)
(0.99466 0.00263208 0)
(1.00426 0.0094691 0)
(1.007 -0.00282421 0)
(1.0064 -0.00317803 0)
(0.997947 -0.0120025 0)
(0.988895 0.000990354 0)
(0.994288 0.00201648 0)
(0.995175 0.00772503 0)
(0.996741 0.0125885 0)
(1.0066 0.0092831 0)
(1.00921 0.00618225 0)
(1.00908 0.000530596 0)
(1.0058 -0.00301844 0)
(1.00385 -0.00289731 0)
(1.00049 -0.00706325 0)
(0.995877 -0.00214961 0)
(0.993589 -0.00137482 0)
(1.00095 0.00370407 0)
(1.00324 -0.0033858 0)
(0.998536 -0.00287923 0)
(0.994832 0.00253257 0)
(1.00425 0.00920802 0)
(1.00672 -0.00275523 0)
(1.00637 -0.00304923 0)
(0.997933 -0.011651 0)
(0.989286 0.00100823 0)
(0.994411 0.00204759 0)
(0.995485 0.00742608 0)
(0.996848 0.0123643 0)
(1.00653 0.00890436 0)
(1.00896 0.0061042 0)
(1.00882 0.000621714 0)
(1.00567 -0.0027581 0)
(1.00373 -0.00271306 0)
(1.00056 -0.006427 0)
(0.996275 -0.00198017 0)
(0.993966 -0.000708905 0)
(1.00102 0.00363685 0)
(1.00309 -0.0033384 0)
(0.998648 -0.00273733 0)
(0.994965 0.00243372 0)
(1.00425 0.00893826 0)
(1.00648 -0.00267594 0)
(1.00626 -0.00293032 0)
(0.997968 -0.0112775 0)
(0.989654 0.00100531 0)
(0.994552 0.00210142 0)
(0.995804 0.00710361 0)
(0.996879 0.0121469 0)
(1.00637 0.00851694 0)
(1.00867 0.00603272 0)
(1.00851 0.000713205 0)
(1.00552 -0.00252018 0)
(1.0036 -0.00247195 0)
(1.00061 -0.0058269 0)
(0.996643 -0.00179298 0)
(0.994301 -0.000112594 0)
(1.00105 0.00356595 0)
(1.00298 -0.00328525 0)
(0.998735 -0.00259753 0)
(0.995098 0.00233577 0)
(1.00424 0.00865811 0)
(1.00628 -0.00258415 0)
(1.0061 -0.00282262 0)
(0.998035 -0.0108812 0)
(0.990009 0.000979966 0)
(0.994703 0.00217674 0)
(0.996128 0.00675921 0)
(0.996893 0.0119386 0)
(1.00617 0.00812736 0)
(1.00836 0.00595511 0)
(1.00819 0.000823226 0)
(1.00538 -0.00232093 0)
(1.00346 -0.00218381 0)
(1.00065 -0.00525358 0)
(0.996999 -0.00160583 0)
(0.994619 0.000432893 0)
(1.00106 0.00349125 0)
(1.0029 -0.00322603 0)
(0.998811 -0.00246125 0)
(0.995256 0.00224099 0)
(1.00419 0.00836544 0)
(1.00608 -0.00247939 0)
(1.00592 -0.00272675 0)
(0.99813 -0.0104634 0)
(0.990355 0.000934102 0)
(0.994869 0.00227363 0)
(0.99645 0.0063917 0)
(0.99692 0.0117367 0)
(1.00594 0.00774876 0)
(1.00807 0.00584644 0)
(1.00785 0.000976492 0)
(1.00524 -0.00216189 0)
(1.00333 -0.00187637 0)
(1.0007 -0.00467706 0)
(0.997353 -0.00143639 0)
(0.994936 0.000934507 0)
(1.00104 0.00341276 0)
(1.00284 -0.00316041 0)
(0.998873 -0.00233011 0)
(0.995452 0.00215176 0)
(1.0041 0.00805899 0)
(1.00589 -0.00235875 0)
(1.00572 -0.00264695 0)
(0.998253 -0.0100217 0)
(0.99069 0.000865896 0)
(0.995052 0.00239034 0)
(0.996761 0.00601058 0)
(0.996971 0.0115256 0)
(1.0057 0.00739226 0)
(1.0078 0.00569925 0)
(1.0075 0.00117022 0)
(1.00512 -0.00203221 0)
(1.00321 -0.00156618 0)
(1.00074 -0.00407331 0)
(0.997706 -0.00129543 0)
(0.995262 0.00139196 0)
(1.00098 0.00332999 0)
(1.00281 -0.0030872 0)
(0.998913 -0.00220571 0)
(0.995689 0.00206999 0)
(1.00397 0.00773902 0)
(1.00571 -0.00222011 0)
(1.00549 -0.00258283 0)
(0.9984 -0.00955832 0)
(0.99101 0.000775958 0)
(0.995253 0.00252278 0)
(0.997056 0.0056247 0)
(0.997045 0.0112973 0)
(1.00544 0.00706441 0)
(1.00755 0.00551502 0)
(1.00712 0.00140864 0)
(1.00501 -0.00190591 0)
(1.00309 -0.00127015 0)
(1.00079 -0.00343977 0)
(0.998054 -0.00117502 0)
(0.995608 0.00178546 0)
(1.00089 0.00324271 0)
(1.00281 -0.00300546 0)
(0.998927 -0.00209001 0)
(0.995958 0.00199798 0)
(1.0038 0.00740474 0)
(1.00555 -0.00206629 0)
(1.00524 -0.00253182 0)
(0.998563 -0.00907728 0)
(0.991316 0.000670248 0)
(0.995465 0.00266518 0)
(0.997336 0.00523629 0)
(0.997139 0.0110497 0)
(1.00516 0.00678033 0)
(1.00732 0.00528947 0)
(1.00673 0.00168182 0)
(1.0049 -0.00176553 0)
(1.00298 -0.00101011 0)
(1.00083 -0.00278141 0)
(0.998392 -0.00105407 0)
(0.995977 0.00209245 0)
(1.00077 0.00315117 0)
(1.00283 -0.00291542 0)
(0.998921 -0.00198407 0)
(0.996248 0.0019376 0)
(1.00362 0.00705425 0)
(1.00539 -0.00189775 0)
(1.00497 -0.00249586 0)
(0.998734 -0.00857995 0)
(0.99161 0.000553797 0)
(0.995682 0.00281034 0)
(0.997602 0.0048578 0)
(0.997247 0.0107681 0)
(1.00487 0.0065457 0)
(1.00712 0.00502153 0)
(1.00634 0.00195915 0)
(1.00479 -0.00160005 0)
(1.0029 -0.000803508 0)
(1.00087 -0.00211102 0)
(0.998715 -0.000906862 0)
(0.996374 0.0022996 0)
(1.00063 0.00305487 0)
(1.00286 -0.00281556 0)
(0.998904 -0.00189063 0)
(0.996542 0.00189121 0)
(1.00343 0.00668823 0)
(1.00524 -0.00171453 0)
(1.0047 -0.00247246 0)
(0.998903 -0.00807302 0)
(0.991903 0.000432791 0)
(0.995893 0.00294762 0)
(0.99786 0.00450685 0)
(0.997363 0.0104507 0)
(1.00457 0.00635498 0)
(1.00692 0.00472014 0)
(1.00595 0.00224313 0)
(1.00467 -0.0013869 0)
(1.00284 -0.000650222 0)
(1.0009 -0.00144775 0)
(0.999017 -0.000706133 0)
(0.996798 0.00240536 0)
(1.0005 0.00295388 0)
(1.00289 -0.002705 0)
(0.998893 -0.0018107 0)
(0.996825 0.00185674 0)
(1.00324 0.00631175 0)
(1.00509 -0.00151827 0)
(1.00444 -0.00245706 0)
(0.99906 -0.00755977 0)
(0.992202 0.000308469 0)
(0.996091 0.0030708 0)
(0.998113 0.00418635 0)
(0.997481 0.0100971 0)
(1.00427 0.00621635 0)
(1.00674 0.0044032 0)
(1.00557 0.00251907 0)
(1.00452 -0.00111866 0)
(1.00282 -0.000539382 0)
(1.00093 -0.000817182 0)
(0.999293 -0.000434538 0)
(0.997245 0.00241748 0)
(1.00038 0.00284808 0)
(1.0029 -0.00258329 0)
(0.998897 -0.00174489 0)
(0.997088 0.00183638 0)
(1.00306 0.00591962 0)
(1.00491 -0.00130968 0)
(1.00419 -0.00244702 0)
(0.999201 -0.0070484 0)
(0.992515 0.000195816 0)
(0.996273 0.00316983 0)
(0.998366 0.00389533 0)
(0.9976 0.00970697 0)
(1.00396 0.00611913 0)
(1.00657 0.00408205 0)
(1.00522 0.00275996 0)
(1.00435 -0.000794599 0)
(1.00283 -0.000454419 0)
(1.00097 -0.000251052 0)
(0.999535 -8.72608e-05 0)
(0.997708 0.00236032 0)
(1.00028 0.00273731 0)
(1.00288 -0.00245014 0)
(0.998926 -0.00169459 0)
(0.997325 0.0018296 0)
(1.00291 0.00551831 0)
(1.00473 -0.00109674 0)
(1.00397 -0.00243654 0)
(0.999327 -0.00654674 0)
(0.992845 0.000103989 0)
(0.996438 0.00323861 0)
(0.998619 0.00363234 0)
(0.997718 0.0092885 0)
(1.00366 0.00605064 0)
(1.0064 0.00377072 0)
(1.00491 0.00296203 0)
(1.00415 -0.000411849 0)
(1.00286 -0.000380482 0)
(1.00103 0.000224849 0)
(0.999744 0.000326571 0)
(0.998172 0.00227133 0)
(1.0002 0.00262236 0)
(1.00283 -0.00230589 0)
(0.998979 -0.00166019 0)
(0.997539 0.00183396 0)
(1.00277 0.00511241 0)
(1.00452 -0.000884125 0)
(1.00376 -0.00241972 0)
(0.999441 -0.00606449 0)
(0.993191 3.6114e-05 0)
(0.99659 0.0032797 0)
(0.99887 0.003402 0)
(0.997839 0.00884969 0)
(1.00335 0.00600124 0)
(1.00623 0.00348308 0)
(1.00463 0.00311066 0)
(1.00393 1.99581e-05 0)
(1.00291 -0.00029835 0)
(1.00112 0.000610379 0)
(0.999918 0.000789116 0)
(0.998618 0.00220192 0)
(1.00016 0.0025027 0)
(1.00275 -0.00215024 0)
(0.999052 -0.00163947 0)
(0.997733 0.00184817 0)
(1.00265 0.00470425 0)
(1.00431 -0.000674609 0)
(1.00357 -0.00239043 0)
(0.999547 -0.00561489 0)
(0.993549 -1.47138e-06 0)
(0.996732 0.00329495 0)
(0.999117 0.00320006 0)
(0.997964 0.00839547 0)
(1.00305 0.00596672 0)
(1.00607 0.00322457 0)
(1.0044 0.00320569 0)
(1.00368 0.000486977 0)
(1.00295 -0.000186895 0)
(1.00124 0.000905827 0)
(1.00006 0.00127713 0)
(0.999022 0.00221869 0)
(1.00012 0.00237883 0)
(1.00266 -0.00198456 0)
(0.999139 -0.00163047 0)
(0.997913 0.00186909 0)
(1.00254 0.00430145 0)
(1.00408 -0.000478238 0)
(1.00339 -0.00233349 0)
(0.999649 -0.00520456 0)
(0.993914 -1.06161e-05 0)
(0.99687 0.00328916 0)
(0.999359 0.00301267 0)
(0.998099 0.00792965 0)
(1.00274 0.00595056 0)
(1.0059 0.00300262 0)
(1.00421 0.00324963 0)
(1.00342 0.000968197 0)
(1.00299 -2.00959e-05 0)
(1.0014 0.00110603 0)
(1.0002 0.0017406 0)
(0.999363 0.00235646 0)
(1.00011 0.00225105 0)
(1.00256 -0.00180852 0)
(0.999232 -0.00163425 0)
(0.998081 0.00189336 0)
(1.00244 0.00390874 0)
(1.00386 -0.000301287 0)
(1.0032 -0.00224722 0)
(0.999751 -0.00483448 0)
(0.994283 3.0475e-06 0)
(0.997003 0.00326737 0)
(0.999593 0.00284828 0)
(0.998248 0.0074623 0)
(1.00243 0.00594498 0)
(1.00573 0.00283321 0)
(1.00407 0.00323966 0)
(1.00316 0.00144523 0)
(1.00299 0.000198549 0)
(1.00158 0.00123572 0)
(1.00034 0.00213716 0)
(0.999633 0.0026139 0)
(1.00009 0.00211993 0)
(1.00245 -0.00162521 0)
(0.999328 -0.00164426 0)
(0.99824 0.00191636 0)
(1.00235 0.00353563 0)
(1.00363 -0.000154491 0)
(1.00302 -0.00212962 0)
(0.999852 -0.00449855 0)
(0.994652 2.52027e-05 0)
(0.997133 0.00324462 0)
(0.999818 0.0027025 0)
(0.998414 0.00699773 0)
(1.00213 0.00594442 0)
(1.00555 0.00271443 0)
(1.00398 0.00317871 0)
(1.00291 0.00190286 0)
(1.00296 0.000465975 0)
(1.00179 0.00133066 0)
(1.0005 0.00244059 0)
(0.99984 0.00293968 0)
(1.00009 0.00198612 0)
(1.00233 -0.00143664 0)
(0.999424 -0.00166039 0)
(0.998391 0.00193047 0)
(1.00226 0.00319026 0)
(1.00342 -4.66509e-05 0)
(1.00283 -0.00197622 0)
(0.999951 -0.00419136 0)
(0.995023 4.57272e-05 0)
(0.99726 0.00322236 0)
(1.00003 0.00256938 0)
(0.9986 0.00653309 0)
(1.00183 0.00593877 0)
(1.00535 0.00264462 0)
(1.00392 0.00307765 0)
(1.00268 0.00232167 0)
(1.00289 0.000786715 0)
(1.002 0.00141226 0)
(1.0007 0.00264529 0)
(1.00001 0.00325734 0)
(1.00008 0.00185072 0)
(1.00221 -0.00124571 0)
(0.999518 -0.0016767 0)
(0.998534 0.00192562 0)
(1.00217 0.00288478 0)
(1.00321 2.42585e-05 0)
(1.00264 -0.00179727 0)
(1.00005 -0.0039032 0)
(0.995394 6.13707e-05 0)
(0.997384 0.00319543 0)
(1.00022 0.00245922 0)
(0.998805 0.00607022 0)
(1.00155 0.00592762 0)
(1.00514 0.00263883 0)
(1.00391 0.00294596 0)
(1.00247 0.0026873 0)
(1.00279 0.00114508 0)
(1.0022 0.00149463 0)
(1.00094 0.00277981 0)
(1.00017 0.00352532 0)
(1.00007 0.00171478 0)
(1.00209 -0.00105582 0)
(0.999609 -0.00168372 0)
(0.998673 0.00189693 0)
(1.00208 0.00261583 0)
(1.00301 6.34712e-05 0)
(1.00245 -0.00160572 0)
(1.00014 -0.00362215 0)
(0.995766 6.7218e-05 0)
(0.997507 0.00317306 0)
(1.0004 0.00237311 0)
(0.999028 0.00562035 0)
(1.00129 0.00591393 0)
(1.00489 0.00269404 0)
(1.00392 0.0027943 0)
(1.00231 0.00298227 0)
(1.00265 0.00153708 0)
(1.00238 0.00159014 0)
(1.0012 0.00286567 0)
(1.00034 0.00373043 0)
(1.00007 0.00157873 0)
(1.00196 -0.000869499 0)
(0.999696 -0.00167613 0)
(0.998806 0.00183639 0)
(1.00198 0.00238615 0)
(1.00281 7.39399e-05 0)
(1.00226 -0.00141394 0)
(1.00022 -0.0033406 0)
(0.996137 6.52564e-05 0)
(0.997631 0.00314857 0)
(1.00055 0.00230936 0)
(0.999269 0.00519035 0)
(1.00105 0.00588238 0)
(1.00463 0.0028014 0)
(1.00396 0.00263494 0)
(1.00219 0.00318965 0)
(1.00248 0.00194463 0)
(1.00252 0.00170347 0)
(1.00149 0.00290742 0)
(1.00052 0.00388159 0)
(1.00006 0.00144471 0)
(1.00182 -0.000693543 0)
(0.999775 -0.00164374 0)
(0.998936 0.00173765 0)
(1.00188 0.00218902 0)
(1.00263 7.01004e-05 0)
(1.00208 -0.00122393 0)
(1.00029 -0.00306001 0)
(0.996507 6.23031e-05 0)
(0.997757 0.00311891 0)
(1.00069 0.00227909 0)
(0.999526 0.00477215 0)
(1.00085 0.0058202 0)
(1.00433 0.0029454 0)
(1.004 0.00248245 0)
(1.00213 0.00331253 0)
(1.00229 0.00235743 0)
(1.00262 0.00185135 0)
(1.00179 0.00290367 0)
(1.00075 0.00397759 0)
(1.00006 0.00131505 0)
(1.00169 -0.000533341 0)
(0.999847 -0.00158339 0)
(0.999061 0.00161123 0)
(1.00178 0.00200617 0)
(1.00245 6.52706e-05 0)
(1.0019 -0.00103475 0)
(1.00036 -0.00277196 0)
(0.996873 6.29409e-05 0)
(0.997887 0.00308974 0)
(1.0008 0.00227803 0)
(0.999793 0.00437354 0)
(1.00068 0.0057085 0)
(1.00401 0.00311842 0)
(1.00403 0.00235928 0)
(1.00213 0.00334504 0)
(1.0021 0.00275182 0)
(1.00266 0.0020557 0)
(1.00208 0.00287375 0)
(1.001 0.00401551 0)
(1.00005 0.00118833 0)
(1.00156 -0.000387889 0)
(0.999909 -0.00150099 0)
(0.999179 0.00146914 0)
(1.00169 0.00183032 0)
(1.00228 6.13169e-05 0)
(1.00173 -0.000848631 0)
(1.00041 -0.00246129 0)
(0.997235 7.28864e-05 0)
(0.998022 0.00305752 0)
(1.00088 0.00230782 0)
(1.00006 0.00399638 0)
(1.00056 0.0055375 0)
(1.00367 0.00329946 0)
(1.00405 0.00227716 0)
(1.00219 0.003296 0)
(1.00194 0.00309176 0)
(1.00265 0.0023136 0)
(1.00236 0.00284475 0)
(1.0013 0.00399291 0)
(1.00005 0.00106736 0)
(1.00142 -0.000262789 0)
(0.999961 -0.00140223 0)
(0.99929 0.00132067 0)
(1.00159 0.00166197 0)
(1.00212 5.43958e-05 0)
(1.00157 -0.000662737 0)
(1.00046 -0.00213273 0)
(0.99759 9.7986e-05 0)
(0.998165 0.0030143 0)
(1.00094 0.00236089 0)
(1.00032 0.00364566 0)
(1.00048 0.00531753 0)
(1.00332 0.00347136 0)
(1.00404 0.0022503 0)
(1.0023 0.00319723 0)
(1.00181 0.0033576 0)
(1.00258 0.00260724 0)
(1.0026 0.00284551 0)
(1.00163 0.00391379 0)
(1.00004 0.000952698 0)
(1.00129 -0.00016248 0)
(1 -0.00128885 0)
(0.999394 0.00117083 0)
(1.0015 0.00150644 0)
(1.00197 3.49369e-05 0)
(1.00142 -0.000478166 0)
(1.00049 -0.00179474 0)
(0.997936 0.000142305 0)
(0.998316 0.0029592 0)
(1.00097 0.0024215 0)
(1.00057 0.00334 0)
(1.00046 0.00505955 0)
(1.00298 0.00362578 0)
(1.00399 0.00228022 0)
(1.00245 0.00306624 0)
(1.00174 0.00353601 0)
(1.00248 0.00291285 0)
(1.00279 0.0029011 0)
(1.00197 0.00380501 0)
(1.00004 0.000846532 0)
(1.00117 -8.5505e-05 0)
(1.00004 -0.00117285 0)
(0.999491 0.00102886 0)
(1.00141 0.00136502 0)
(1.00184 7.01494e-06 0)
(1.00129 -0.000320374 0)
(1.00052 -0.00145043 0)
(0.998269 0.000214596 0)
(0.998478 0.00289574 0)
(1.00099 0.00249121 0)
(1.00081 0.00308242 0)
(1.00048 0.00477103 0)
(1.00266 0.00374425 0)
(1.0039 0.00235531 0)
(1.00263 0.00292909 0)
(1.00174 0.0036316 0)
(1.00237 0.00320418 0)
(1.00291 0.00301391 0)
(1.0023 0.00369757 0)
(1.00003 0.000746417 0)
(1.00105 -2.29399e-05 0)
(1.00006 -0.00106515 0)
(0.999581 0.000906896 0)
(1.00132 0.00122221 0)
(1.00172 -1.36687e-05 0)
(1.00118 -0.000196715 0)
(1.00055 -0.00110942 0)
(0.998586 0.000318578 0)
(0.998647 0.00284013 0)
(1.00099 0.0025678 0)
(1.00101 0.00288277 0)
(1.00054 0.00447684 0)
(1.00237 0.00382705 0)
(1.00378 0.00246858 0)
(1.0028 0.0028029 0)
(1.0018 0.00364485 0)
(1.00227 0.00344804 0)
(1.00297 0.00316327 0)
(1.00261 0.00361518 0)
(1.00003 0.000649781 0)
(1.00093 2.96741e-05 0)
(1.00009 -0.000966314 0)
(0.999663 0.000800419 0)
(1.00124 0.00109067 0)
(1.00161 -5.54451e-05 0)
(1.00109 -9.25377e-05 0)
(1.00057 -0.000745844 0)
(0.998886 0.000466618 0)
(0.998822 0.00278654 0)
(1.00097 0.00263728 0)
(1.00119 0.00273085 0)
(1.00064 0.00419063 0)
(1.00213 0.00387681 0)
(1.00363 0.00261502 0)
(1.00297 0.00271102 0)
(1.00192 0.0035985 0)
(1.00219 0.00363982 0)
(1.00297 0.0033379 0)
(1.00285 0.00358506 0)
(1.00003 0.000565635 0)
(1.00082 5.6534e-05 0)
(1.0001 -0.000852934 0)
(0.999739 0.000695919 0)
(1.00116 0.0010099 0)
(1.00151 -2.68286e-05 0)
(1.00103 2.02371e-05 0)
(1.0006 -0.00045886 0)
(0.99916 0.000570266 0)
(0.998997 0.00268826 0)
(1.00095 0.00268069 0)
(1.00135 0.00260907 0)
(1.00078 0.00390527 0)
(1.00193 0.00387672 0)
(1.00345 0.0027691 0)
(1.00311 0.00265824 0)
(1.00209 0.00350195 0)
(1.00215 0.003763 0)
(1.00294 0.00350634 0)
(1.00303 0.0035959 0)
(1.00003 0.000491251 0)
(1.00071 6.70469e-05 0)
(1.00011 -0.000731486 0)
(0.999812 0.000601343 0)
(1.00109 0.000981787 0)
(1.00142 6.58544e-05 0)
(1.00098 0.000107133 0)
(1.00063 -0.000261491 0)
(0.999422 0.000619784 0)
(0.999184 0.00255021 0)
(1.00093 0.00268431 0)
(1.00147 0.00250635 0)
(1.00093 0.00362742 0)
(1.00178 0.00383005 0)
(1.00326 0.0029166 0)
(1.00321 0.00265085 0)
(1.00229 0.00337837 0)
(1.00217 0.00381155 0)
(1.00289 0.00364826 0)
(1.00316 0.00363112 0)
(1.00002 0.000422664 0)
(1.00062 7.12791e-05 0)
(1.00012 -0.000616209 0)
(0.999882 0.0005378 0)
(1.00104 0.000954044 0)
(1.00134 0.000131185 0)
(1.00094 0.000181912 0)
(1.00066 -6.6269e-05 0)
(0.999664 0.0006714 0)
(0.999373 0.00241656 0)
(1.00091 0.00268284 0)
(1.00156 0.00244766 0)
(1.00109 0.00338639 0)
(1.00169 0.00375739 0)
(1.00307 0.00305377 0)
(1.00327 0.00269338 0)
(1.00251 0.00326769 0)
(1.00225 0.00380418 0)
(1.00286 0.00376249 0)
(1.00323 0.00368787 0)
(1.00002 0.000362312 0)
(1.00053 6.95683e-05 0)
(1.00012 -0.000500831 0)
(0.999948 0.000484205 0)
(1.00098 0.000909239 0)
(1.00126 0.000215506 0)
(1.00091 0.000277142 0)
(1.00069 9.81957e-05 0)
(0.999889 0.000722049 0)
(0.999573 0.00230775 0)
(1.0009 0.00268957 0)
(1.00164 0.0024287 0)
(1.00126 0.00317571 0)
(1.00165 0.00364905 0)
(1.0029 0.00315487 0)
(1.00329 0.00276122 0)
(1.00272 0.00317776 0)
(1.00237 0.00374845 0)
(1.00284 0.00383143 0)
(1.00326 0.00374587 0)
(1.00002 0.000311739 0)
(1.00045 6.18375e-05 0)
(1.00013 -0.000392588 0)
(1.00001 0.00043882 0)
(1.00094 0.000864529 0)
(1.00119 0.00029966 0)
(1.00088 0.000368773 0)
(1.00072 0.000256144 0)
(1.0001 0.000794474 0)
(0.999776 0.00220714 0)
(1.00091 0.00266967 0)
(1.00168 0.00241619 0)
(1.00142 0.00299225 0)
(1.00166 0.00351568 0)
(1.00275 0.00321871 0)
(1.00328 0.0028414 0)
(1.00291 0.00311333 0)
(1.00253 0.00366216 0)
(1.00285 0.00385237 0)
(1.00327 0.00379144 0)
(1.00002 0.000268426 0)
(1.00038 5.00072e-05 0)
(1.00014 -0.00029233 0)
(1.00007 0.00040751 0)
(1.00091 0.000817867 0)
(1.00114 0.000378022 0)
(1.00086 0.000472323 0)
(1.00074 0.000410213 0)
(1.00029 0.000857929 0)
(0.999979 0.00209423 0)
(1.00092 0.00263031 0)
(1.00171 0.00241685 0)
(1.00157 0.00284965 0)
(1.0017 0.00337686 0)
(1.00264 0.00324451 0)
(1.00325 0.00291548 0)
(1.00306 0.00307019 0)
(1.00271 0.00355793 0)
(1.00289 0.00382771 0)
(1.00328 0.00380877 0)
(1.00002 0.000232652 0)
(1.00032 3.63712e-05 0)
(1.00015 -0.000202228 0)
(1.00012 0.000388953 0)
(1.00089 0.000773381 0)
(1.00109 0.000448521 0)
(1.00085 0.00057483 0)
(1.00077 0.000556585 0)
(1.00046 0.000921683 0)
(1.00018 0.00199016 0)
(1.00096 0.00258203 0)
(1.00173 0.00242621 0)
(1.00171 0.00273399 0)
(1.00177 0.00323386 0)
(1.00256 0.00323261 0)
(1.00321 0.00297173 0)
(1.00319 0.00304983 0)
(1.00289 0.00345683 0)
(1.00297 0.00377511 0)
(1.0033 0.00380179 0)
(1.00002 0.000204218 0)
(1.00027 2.33049e-05 0)
(1.00016 -0.000123127 0)
(1.00016 0.000388613 0)
(1.00088 0.000733766 0)
(1.00106 0.000500117 0)
(1.00085 0.000667656 0)
(1.0008 0.00069637 0)
(1.00061 0.000995099 0)
(1.00038 0.00190015 0)
(1.00101 0.0025142 0)
(1.00174 0.00243269 0)
(1.00183 0.00264756 0)
(1.00186 0.00309924 0)
(1.00251 0.00319869 0)
(1.00317 0.00301019 0)
(1.00329 0.00304383 0)
(1.00307 0.00336598 0)
(1.00308 0.00369966 0)
(1.00332 0.00377028 0)
(1.00002 0.000180309 0)
(1.00023 1.79853e-05 0)
(1.00017 -5.21367e-05 0)
(1.00021 0.000401147 0)
(1.00087 0.000702257 0)
(1.00105 0.000534505 0)
(1.00087 0.00074755 0)
(1.00082 0.000824199 0)
(1.00074 0.00107293 0)
(1.00057 0.00182363 0)
(1.00108 0.00242993 0)
(1.00176 0.00242649 0)
(1.00192 0.00259008 0)
(1.00196 0.00298206 0)
(1.0025 0.00314853 0)
(1.00313 0.00302967 0)
(1.00336 0.00303717 0)
(1.00324 0.00328059 0)
(1.0032 0.00360386 0)
(1.00336 0.0037146 0)
(1.00002 0.000161271 0)
(1.0002 2.01408e-05 0)
(1.00019 7.77343e-06 0)
(1.00024 0.000420586 0)
(1.00086 0.000682634 0)
(1.00104 0.000557736 0)
(1.00089 0.000810004 0)
(1.00085 0.00094021 0)
(1.00086 0.00115554 0)
(1.00074 0.00176552 0)
(1.00117 0.00234309 0)
(1.00178 0.00240483 0)
(1.00201 0.00254314 0)
(1.00206 0.00287996 0)
(1.00251 0.00308232 0)
(1.00311 0.00302796 0)
(1.00341 0.00302834 0)
(1.00339 0.00320175 0)
(1.00333 0.00349855 0)
(1.00342 0.00364124 0)
(1.00002 0.000145819 0)
(1.00017 2.96506e-05 0)
(1.00021 5.64653e-05 0)
(1.00028 0.000441609 0)
(1.00086 0.000679905 0)
(1.00105 0.00057827 0)
(1.00093 0.000850958 0)
(1.00089 0.00103713 0)
(1.00095 0.00124011 0)
(1.0009 0.00172534 0)
(1.00126 0.0022599 0)
(1.00181 0.00237439 0)
(1.00209 0.00249711 0)
(1.00216 0.00278705 0)
(1.00255 0.00300779 0)
(1.0031 0.00300344 0)
(1.00345 0.00301685 0)
(1.00351 0.00313285 0)
(1.00347 0.00338847 0)
(1.00349 0.00355401 0)
(1.00002 0.00013254 0)
(1.00014 4.62445e-05 0)
(1.00023 9.83525e-05 0)
(1.00031 0.000460013 0)
(1.00085 0.000690353 0)
(1.00105 0.000603714 0)
(1.00098 0.000877611 0)
(1.00094 0.0011108 0)
(1.00103 0.00132189 0)
(1.00104 0.00170312 0)
(1.00136 0.00217871 0)
(1.00185 0.00233282 0)
(1.00216 0.00245372 0)
(1.00227 0.00269928 0)
(1.00259 0.00293189 0)
(1.0031 0.00296145 0)
(1.00348 0.00299395 0)
(1.00361 0.00307651 0)
(1.00361 0.00327764 0)
(1.00357 0.00345524 0)
(1.00003 0.000122019 0)
(1.00012 6.60345e-05 0)
(1.00025 0.000133661 0)
(1.00035 0.00047466 0)
(1.00085 0.000710695 0)
(1.00106 0.000637096 0)
(1.00103 0.000897504 0)
(1.00099 0.00116098 0)
(1.00111 0.0013918 0)
(1.00116 0.00170179 0)
(1.00145 0.00210974 0)
(1.0019 0.00227954 0)
(1.00222 0.00241056 0)
(1.00236 0.00261743 0)
(1.00265 0.00285181 0)
(1.00312 0.00291016 0)
(1.0035 0.0029514 0)
(1.00369 0.00302329 0)
(1.00373 0.00317088 0)
(1.00366 0.00333982 0)
(1.00003 0.000113183 0)
(1.00011 8.81352e-05 0)
(1.00027 0.000166302 0)
(1.00038 0.000484014 0)
(1.00084 0.000736909 0)
(1.00107 0.000681363 0)
(1.00109 0.000917635 0)
(1.00106 0.00119071 0)
(1.00118 0.00144272 0)
(1.00127 0.0017088 0)
(1.00154 0.00205918 0)
(1.00195 0.00222564 0)
(1.00228 0.00236109 0)
(1.00246 0.00254166 0)
(1.00272 0.00276588 0)
(1.00314 0.00285187 0)
(1.00353 0.0028972 0)
(1.00375 0.00296158 0)
(1.00383 0.00307611 0)
(1.00376 0.00321186 0)
(1.00003 0.000106163 0)
(1.00009 0.000111283 0)
(1.00029 0.000199656 0)
(1.00041 0.000488072 0)
(1.00084 0.000761149 0)
(1.00107 0.000735266 0)
(1.00114 0.00094258 0)
(1.00113 0.00120698 0)
(1.00125 0.00147874 0)
(1.00136 0.00171349 0)
(1.00162 0.00201975 0)
(1.002 0.00217991 0)
(1.00234 0.00230844 0)
(1.00254 0.00246649 0)
(1.00279 0.00267637 0)
(1.00317 0.00278021 0)
(1.00356 0.00283864 0)
(1.00381 0.00288885 0)
(1.00391 0.00298948 0)
(1.00385 0.00308634 0)
(1.00003 0.000101735 0)
(1.00008 0.000132039 0)
(1.0003 0.000233897 0)
(1.00045 0.000492154 0)
(1.00085 0.000781199 0)
(1.00108 0.000792566 0)
(1.00119 0.000974781 0)
(1.0012 0.00121555 0)
(1.00133 0.00149858 0)
(1.00145 0.00171714 0)
(1.00169 0.00198557 0)
(1.00204 0.00213799 0)
(1.00239 0.00226227 0)
(1.00262 0.00239232 0)
(1.00287 0.00258675 0)
(1.00322 0.00269505 0)
(1.00358 0.00276994 0)
(1.00385 0.00281047 0)
(1.00397 0.00289753 0)
(1.00393 0.00297147 0)
(1.00003 9.94565e-05 0)
(1.00007 0.000150442 0)
(1.00032 0.000269331 0)
(1.00048 0.000498927 0)
(1.00085 0.000796377 0)
(1.00108 0.000846023 0)
(1.00123 0.00101571 0)
(1.00127 0.00122512 0)
(1.0014 0.00150185 0)
(1.00152 0.00171561 0)
(1.00176 0.00195724 0)
(1.00209 0.00209467 0)
(1.00243 0.00221911 0)
(1.00269 0.00232442 0)
(1.00294 0.00249675 0)
(1.00327 0.0026046 0)
(1.00361 0.00268608 0)
(1.00388 0.00272852 0)
(1.00402 0.00279766 0)
(1.004 0.00286148 0)
(1.00003 9.9449e-05 0)
(1.00006 0.000166551 0)
(1.00033 0.000305021 0)
(1.0005 0.000509386 0)
(1.00087 0.000806765 0)
(1.00109 0.000892777 0)
(1.00127 0.00106137 0)
(1.00134 0.00124074 0)
(1.00147 0.00149819 0)
(1.0016 0.00170247 0)
(1.00182 0.00193197 0)
(1.00213 0.00205609 0)
(1.00246 0.0021728 0)
(1.00275 0.00226299 0)
(1.003 0.002407 0)