/*--------------------------------*- C++ -*----------------------------------*\
| =========                 |                                                 |
| \\      /  F ield         | OpenFOAM: The Open Source CFD Toolbox           |
|  \\    /   O peration     | Version:  2506                                  |
|   \\  /    A nd           | Website:  www.openfoam.com                      |
|    \\/     M anipulation  |                                                 |
\*---------------------------------------------------------------------------*/
FoamFile
{
    version     2.0;
    format      ascii;
    arch        "LSB;label=32;scalar=64";
    class       volVectorField;
    location    "7.65";
    object      U;
}
// * * * * * * * * * * * * * * * * * * * * * * * * * * * * * * * * * * * * * //

dimensions      [0 1 -1 0 0 0 0];

internalField   nonuniform List<vector> 
9600
(
(0.957586 0.0168336 0)
(1.05947 -0.0132762 0)
(0.961512 0.000388988 0)
(1.05208 -0.0173908 0)
(0.837042 0.0360689 0)
(1.2023 -0.00265775 0)
(0.685268 -0.005544 0)
(1.13742 0.0161891 0)
(0.86669 -0.00784744 0)
(1.04572 -0.00766975 0)
(0.923247 -0.00163418 0)
(1.07069 -0.00321 0)
(0.910931 0.0260913 0)
(1.08366 0.00219244 0)
(0.868596 0.0308259 0)
(1.11004 0.00893935 0)
(0.823902 0.0257682 0)
(1.10447 0.013857 0)
(0.786542 0.0170976 0)
(1.0794 0.0174255 0)
(0.959303 0.0167183 0)
(1.0533 -0.0131713 0)
(0.962193 0.000312462 0)
(1.04713 -0.0161311 0)
(0.840135 0.0349872 0)
(1.18688 -0.000494506 0)
(0.703245 -0.00515476 0)
(1.1216 0.0146084 0)
(0.890322 -0.00678871 0)
(1.03859 -0.0083101 0)
(0.935462 -0.00235349 0)
(1.06371 -0.00268508 0)
(0.922809 0.0255425 0)
(1.06586 0.00360609 0)
(0.88948 0.0296719 0)
(1.07338 0.010462 0)
(0.871362 0.0256169 0)
(1.035 0.0145595 0)
(0.882142 0.019192 0)
(0.958429 0.0153994 0)
(0.962575 0.0165741 0)
(1.04603 -0.0130912 0)
(0.964725 0.000296735 0)
(1.03989 -0.0150016 0)
(0.847361 0.0333656 0)
(1.16264 0.000974504 0)
(0.743494 -0.00492061 0)
(1.08611 0.0126001 0)
(0.923274 -0.00600705 0)
(1.02121 -0.00892834 0)
(0.954818 -0.00281938 0)
(1.04686 -0.00223837 0)
(0.948289 0.0251684 0)
(1.04148 0.00456952 0)
(0.92532 0.0288694 0)
(1.03369 0.011333 0)
(0.925898 0.0258862 0)
(0.987433 0.0149966 0)
(0.938504 0.0203446 0)
(0.937141 0.0156284 0)
(0.967176 0.0164609 0)
(1.0384 -0.0129956 0)
(0.968914 0.000275004 0)
(1.03152 -0.0139566 0)
(0.859359 0.032001 0)
(1.13126 0.0020534 0)
(0.799976 -0.00431398 0)
(1.03837 0.0107908 0)
(0.955876 -0.00541789 0)
(1.00145 -0.00929381 0)
(0.970991 -0.00319722 0)
(1.02587 -0.00211335 0)
(0.974232 0.025063 0)
(1.02326 0.00511607 0)
(0.957352 0.0289485 0)
(1.01128 0.0115336 0)
(0.960247 0.0267319 0)
(0.976465 0.015139 0)
(0.959178 0.0209227 0)
(0.951154 0.0167991 0)
(0.972736 0.0163762 0)
(1.03131 -0.0128968 0)
(0.973814 0.000254383 0)
(1.02279 -0.0129634 0)
(0.875814 0.0310149 0)
(1.0975 0.00265222 0)
(0.859311 -0.00339794 0)
(0.993976 0.00922261 0)
(0.978996 -0.00516554 0)
(0.988059 -0.00943561 0)
(0.978264 -0.00354612 0)
(1.0077 -0.00218227 0)
(0.989547 0.0248765 0)
(1.01292 0.00565735 0)
(0.975973 0.0290776 0)
(1.00123 0.011797 0)
(0.974727 0.0273314 0)
(0.977384 0.0155144 0)
(0.966646 0.0214114 0)
(0.961715 0.0177777 0)
(0.978792 0.0162963 0)
(1.02546 -0.0127892 0)
(0.978443 0.000259576 0)
(1.01425 -0.0120476 0)
(0.895302 0.0302716 0)
(1.06721 0.00279517 0)
(0.909334 -0.0023021 0)
(0.965921 0.00798981 0)
(0.991157 -0.00526985 0)
(0.983301 -0.00939871 0)
(0.979493 -0.00379236 0)
(0.995337 -0.00232588 0)
(0.992716 0.0245345 0)
(1.00701 0.00619475 0)
(0.982118 0.0290464 0)
(0.995567 0.0122747 0)
(0.977703 0.0274566 0)
(0.97791 0.0161965 0)
(0.970001 0.0215103 0)
(0.967355 0.01848 0)
(0.984866 0.0162042 0)
(1.02111 -0.0126602 0)
(0.98227 0.000302338 0)
(1.00628 -0.0112558 0)
(0.915784 0.029704 0)
(1.04441 0.00261928 0)
(0.944916 -0.00121188 0)
(0.956794 0.00715095 0)
(0.996448 -0.00559247 0)
(0.984046 -0.00925921 0)
(0.979762 -0.00389042 0)
(0.988657 -0.00245341 0)
(0.988653 0.0241039 0)
(1.00273 0.00664402 0)
(0.981567 0.029018 0)
(0.991751 0.0128289 0)
(0.977166 0.0273666 0)
(0.978169 0.0169346 0)
(0.973289 0.0212243 0)
(0.972572 0.0190897 0)
(0.990538 0.0160896 0)
(1.01815 -0.0125004 0)
(0.985291 0.000384451 0)
(0.999174 -0.0106121 0)
(0.935457 0.0292615 0)
(1.02987 0.00231823 0)
(0.967248 -0.00027453 0)
(0.96085 0.00663951 0)
(0.999425 -0.00596922 0)
(0.986565 -0.00906573 0)
(0.981222 -0.00386281 0)
(0.986069 -0.00247543 0)
(0.983278 0.0236275 0)
(0.999068 0.00700758 0)
(0.979882 0.0289644 0)
(0.990006 0.0133843 0)
(0.978089 0.0271558 0)
(0.980465 0.0175978 0)
(0.978535 0.020737 0)
(0.979297 0.0196356 0)
(0.995475 0.0159453 0)
(1.01621 -0.012307 0)
(0.987789 0.000507277 0)
(0.993208 -0.0101187 0)
(0.953204 0.0288711 0)
(1.02201 0.00200415 0)
(0.980252 0.000457493 0)
(0.970658 0.00632842 0)
(1.00247 -0.00627384 0)
(0.988992 -0.00884993 0)
(0.983418 -0.00376295 0)
(0.985556 -0.00235651 0)
(0.980062 0.0231443 0)
(0.996082 0.00731209 0)
(0.979923 0.0287905 0)
(0.990397 0.0139218 0)
(0.981733 0.0267574 0)
(0.985107 0.0182029 0)
(0.985546 0.020099 0)
(0.987101 0.0200604 0)
(0.999442 0.0157682 0)
(1.01491 -0.0120821 0)
(0.990045 0.000669762 0)
(0.988623 -0.0097666 0)
(0.968459 0.0284707 0)
(1.01858 0.00175761 0)
(0.987741 0.000996008 0)
(0.981138 0.00611762 0)
(1.00589 -0.00645371 0)
(0.990923 -0.00860704 0)
(0.985464 -0.0036159 0)
(0.985585 -0.00214577 0)
(0.9795 0.0226842 0)
(0.993935 0.0075812 0)
(0.981886 0.0284586 0)
(0.992226 0.0144284 0)
(0.986966 0.0261412 0)
(0.990808 0.0187592 0)
(0.992909 0.0193555 0)
(0.994746 0.020367 0)
(1.00231 0.0155599 0)
(1.01394 -0.0118311 0)
(0.992216 0.000863021 0)
(0.985535 -0.0095369 0)
(0.980885 0.0280291 0)
(1.01767 0.00161675 0)
(0.992283 0.00137089 0)
(0.989919 0.00594274 0)
(1.0091 -0.00650845 0)
(0.992382 -0.00831525 0)
(0.987023 -0.00342363 0)
(0.985557 -0.00190326 0)
(0.980494 0.0222466 0)
(0.992532 0.00782882 0)
(0.984674 0.0279626 0)
(0.994549 0.0148981 0)
(0.99223 0.0253376 0)
(0.996215 0.0192654 0)
(0.999423 0.0185831 0)
(1.00132 0.0205636 0)
(1.00407 0.0153262 0)
(1.01309 -0.0115619 0)
(0.994356 0.00107295 0)
(0.983845 -0.00940136 0)
(0.990283 0.0275366 0)
(1.01794 0.00157944 0)
(0.995261 0.00162606 0)
(0.99631 0.00578081 0)
(1.01154 -0.00646415 0)
(0.993363 -0.00797292 0)
(0.988147 -0.00319008 0)
(0.985547 -0.00164515 0)
(0.981917 0.0218106 0)
(0.991711 0.00806865 0)
(0.987317 0.0273025 0)
(0.996761 0.0153487 0)
(0.996702 0.0243814 0)
(1.00071 0.0197333 0)
(1.00466 0.0178333 0)
(1.00653 0.0206158 0)
(1.00485 0.0150752 0)
(1.01224 -0.0112838 0)
(0.996463 0.00128543 0)
(0.983257 -0.00932652 0)
(0.996694 0.0269928 0)
(1.01851 0.00163083 0)
(0.997339 0.00179654 0)
(1.00045 0.00563835 0)
(1.013 -0.00635408 0)
(0.993856 -0.00759182 0)
(0.988948 -0.00292993 0)
(0.9858 -0.00138483 0)
(0.983347 0.021356 0)
(0.991484 0.00831525 0)
(0.9896 0.0264896 0)
(0.998778 0.0157814 0)
(1.00036 0.023327 0)
(1.00431 0.0201455 0)
(1.00871 0.0171594 0)
(1.01045 0.0205026 0)
(1.00485 0.0148151 0)
(1.01138 -0.0110055 0)
(0.998482 0.00148886 0)
(0.983413 -0.009278 0)
(1.00046 0.0264039 0)
(1.01884 0.00174679 0)
(0.998853 0.00191095 0)
(1.00281 0.00552101 0)
(1.01362 -0.00619922 0)
(0.993958 -0.00718015 0)
(0.989496 -0.00266453 0)
(0.986387 -0.00113548 0)
(0.984902 0.0208736 0)
(0.991958 0.00857341 0)
(0.991806 0.0255473 0)
(1.00075 0.0161915 0)
(1.00345 0.022227 0)
(1.00713 0.0204681 0)
(1.0117 0.0166252 0)
(1.01319 0.020234 0)
(1.00433 0.0145527 0)
(1.01058 -0.0107327 0)
(1.00029 0.00167453 0)
(0.984013 -0.00922325 0)
(1.00211 0.0257788 0)
(1.0187 0.0019044 0)
(0.999981 0.00198348 0)
(1.00394 0.00543781 0)
(1.01368 -0.00601383 0)
(0.993867 -0.00674191 0)
(0.989857 -0.00240824 0)
(0.987171 -0.000910571 0)
(0.986711 0.0203534 0)
(0.993051 0.0088369 0)
(0.9941 0.0245072 0)
(1.00265 0.016588 0)
(1.00599 0.0211292 0)
(1.00915 0.0206899 0)
(1.01363 0.0162743 0)
(1.01476 0.0198283 0)
(1.00353 0.0142916 0)
(1.00992 -0.0104679 0)
(1.00175 0.00183744 0)
(0.984857 -0.009137 0)
(1.00226 0.0251259 0)
(1.01811 0.00208351 0)
(1.00082 0.00201905 0)
(1.00428 0.00539357 0)
(1.01346 -0.00581105 0)
(0.993781 -0.00628703 0)
(0.990118 -0.00216326 0)
(0.98795 -0.000719796 0)
(0.988586 0.0197769 0)
(0.994387 0.00911382 0)
(0.99624 0.0234087 0)
(1.00416 0.0169625 0)
(1.00777 0.0200929 0)
(1.01021 0.0208203 0)
(1.01445 0.0161241 0)
(1.01524 0.0193283 0)
(1.00266 0.0140326 0)
(1.00945 -0.0102095 0)
(1.00277 0.00197591 0)
(0.985822 -0.00900527 0)
(1.00148 0.0244524 0)
(1.01725 0.00226992 0)
(1.00143 0.00201921 0)
(1.00412 0.00538807 0)
(1.01312 -0.00560305 0)
(0.993812 -0.00582573 0)
(0.990361 -0.00192496 0)
(0.988599 -0.000566845 0)
(0.990144 0.0191389 0)
(0.99548 0.00941068 0)
(0.997799 0.0222896 0)
(1.00493 0.0173056 0)
(1.00859 0.0191637 0)
(1.01026 0.0208591 0)
(1.01428 0.0161525 0)
(1.01485 0.0187771 0)
(1.00187 0.0137736 0)
(1.00914 -0.00995248 0)
(1.00338 0.00208828 0)
(0.986814 -0.00882063 0)
(1.00027 0.0237621 0)
(1.01629 0.00245559 0)
(1.00187 0.00198877 0)
(1.00364 0.00541798 0)
(1.01275 -0.00540719 0)
(0.993971 -0.00535257 0)
(0.990634 -0.00167911 0)
(0.989104 -0.000437973 0)
(0.99111 0.0184636 0)
(0.996021 0.00971677 0)
(0.998544 0.0211876 0)
(1.00485 0.01762 0)
(1.00852 0.018362 0)
(1.00951 0.020794 0)
(1.01339 0.0163008 0)
(1.01393 0.0181817 0)
(1.00124 0.0135117 0)
(1.00895 -0.00969069 0)
(1.00367 0.00217349 0)
(0.987757 -0.00858074 0)
(0.998996 0.0230552 0)
(1.01538 0.00263753 0)
(1.00221 0.00193157 0)
(1.003 0.00548193 0)
(1.01239 -0.00523368 0)
(0.994205 -0.00487767 0)
(0.99094 -0.00141888 0)
(0.989519 -0.000317766 0)
(0.991485 0.0177665 0)
(0.995995 0.010033 0)
(0.998582 0.020131 0)
(1.00412 0.017894 0)
(1.00787 0.0176959 0)
(1.00834 0.0206168 0)
(1.01214 0.016517 0)
(1.01283 0.0175674 0)
(1.00078 0.0132438 0)
(1.00881 -0.00941873 0)
(1.00376 0.00223216 0)
(0.988604 -0.00828847 0)
(0.997905 0.0223288 0)
(1.01457 0.00281777 0)
(1.00248 0.00184895 0)
(1.00233 0.00557926 0)
(1.01203 -0.0050851 0)
(0.994458 -0.00441263 0)
(0.991258 -0.00113515 0)
(0.989922 -0.000194433 0)
(0.991475 0.017068 0)
(0.995603 0.0103426 0)
(0.998222 0.0191372 0)
(1.00309 0.0181068 0)
(1.00699 0.0171541 0)
(1.00714 0.0203418 0)
(1.01086 0.01678 0)
(1.01183 0.0169802 0)
(1.00048 0.0129674 0)
(1.00869 -0.00913192 0)
(1.00373 0.00226435 0)
(0.989339 -0.00794818 0)
(0.997104 0.0215802 0)
(1.01386 0.00300024 0)
(1.0027 0.00174368 0)
(1.00171 0.00570077 0)
(1.01169 -0.00495028 0)
(0.994693 -0.00395885 0)
(0.991558 -0.000818798 0)
(0.990374 -6.52781e-05 0)
(0.991332 0.0163903 0)
(0.9951 0.0106347 0)
(0.997781 0.0181988 0)
(1.00209 0.0182584 0)
(1.00616 0.0166989 0)
(1.00615 0.0199735 0)
(1.00972 0.0170677 0)
(1.01105 0.016458 0)
(1.00029 0.0126807 0)
(1.00857 -0.00882707 0)
(1.00366 0.00227165 0)
(0.989979 -0.00756599 0)
(0.996596 0.020809 0)
(1.01324 0.00318882 0)
(1.00287 0.00161975 0)
(1.00121 0.00584021 0)
(1.01136 -0.00482234 0)
(0.994909 -0.00351922 0)
(0.991811 -0.000471981 0)
(0.990906 7.06998e-05 0)
(0.991235 0.0157415 0)
(0.99467 0.0109205 0)
(0.99745 0.0172946 0)
(1.00131 0.0183448 0)
(1.0055 0.0163258 0)
(1.00549 0.0195155 0)
(1.0088 0.0173337 0)
(1.0105 0.0160165 0)
(1.00017 0.0123819 0)
(1.00847 -0.00850107 0)
(1.00357 0.0022536 0)
(0.990554 -0.0071436 0)
(0.996324 0.0200089 0)
(1.01269 0.00339192 0)
(1.00299 0.0014748 0)
(1.00082 0.00599962 0)
(1.01104 -0.00469971 0)
(0.995125 -0.00310808 0)
(0.991998 -0.000104192 0)
(0.991519 0.000205995 0)
(0.991262 0.0151109 0)
(0.994392 0.0112046 0)
(0.997292 0.0164352 0)
(1.00082 0.0183604 0)
(1.00504 0.0160407 0)
(1.00515 0.0189727 0)
(1.00809 0.017547 0)
(1.01015 0.0156762 0)
(1.0001 0.0120699 0)
(1.00836 -0.00815358 0)
(1.00347 0.00221129 0)
(0.991087 -0.00668736 0)
(0.996216 0.019183 0)
(1.01219 0.00361227 0)
(1.00306 0.00130796 0)
(1.00053 0.00617849 0)
(1.01072 -0.00457467 0)
(0.995369 -0.00272788 0)
(0.992111 0.000303404 0)
(0.992199 0.000321733 0)
(0.991416 0.0144955 0)
(0.994267 0.011485 0)
(0.997283 0.0156152 0)
(1.00057 0.0183094 0)
(1.00471 0.0158446 0)
(1.00507 0.0183525 0)
(1.00755 0.0176925 0)
(1.00992 0.0154737 0)
(1.00004 0.0117444 0)
(1.00826 -0.0077839 0)
(1.00338 0.00214447 0)
(0.991595 -0.00620016 0)
(0.996212 0.0183325 0)
(1.01173 0.00384971 0)
(1.00309 0.00112721 0)
(1.00031 0.00636176 0)
(1.01038 -0.00442369 0)
(0.995663 -0.00238873 0)
(0.992156 0.000755931 0)
(0.992922 0.000432314 0)
(0.991673 0.0138894 0)
(0.994253 0.0117565 0)
(0.997373 0.014829 0)
(1.0005 0.0181742 0)
(1.00447 0.0157424 0)
(1.00515 0.017678 0)
(1.00714 0.0177288 0)
(1.00972 0.0154134 0)
(0.999987 0.0114047 0)
(1.00816 -0.00739075 0)
(1.0033 0.00205306 0)
(0.992078 -0.0056831 0)
(0.996276 0.0174543 0)
(1.01127 0.00410535 0)
(1.00308 0.000937594 0)
(1.00015 0.00654219 0)
(1.01001 -0.00424567 0)
(0.996015 -0.00209628 0)
(0.99215 0.00124094 0)
(0.993663 0.00055466 0)
(0.992011 0.0132682 0)
(0.9943 0.0120295 0)
(0.997519 0.0140904 0)
(1.00056 0.0179294 0)
(1.00426 0.0157268 0)
(1.00532 0.0169917 0)
(1.00686 0.017621 0)
(1.00951 0.0154788 0)
(0.999937 0.0110505 0)
(1.00804 -0.00697551 0)
(1.00326 0.00194003 0)
(0.99253 -0.00514319 0)
(0.99639 0.0165572 0)
(1.01081 0.00437397 0)
(1.00304 0.00074294 0)
(1.00004 0.0067111 0)
(1.00962 -0.00403614 0)
(0.996421 -0.00184583 0)
(0.992115 0.00176332 0)
(0.994392 0.000687093 0)
(0.992422 0.0126309 0)
(0.994368 0.0123089 0)
(0.99769 0.0134067 0)
(1.00068 0.0175719 0)
(1.00405 0.0157854 0)
(1.00549 0.0163466 0)
(1.00668 0.0173567 0)
(1.00926 0.0156271 0)
(0.99989 0.0106822 0)
(1.0079 -0.00653849 0)
(1.00327 0.00180271 0)
(0.992948 -0.00457678 0)
(0.996543 0.015643 0)
(1.01035 0.00465603 0)
(1.003 0.000547255 0)
(0.999954 0.00686072 0)
(1.00921 -0.00377061 0)
(0.996867 -0.00165585 0)
(0.992073 0.00230168 0)
(0.995084 0.000851354 0)
(0.992906 0.01196 0)
(0.994434 0.0125904 0)
(0.997868 0.0128044 0)
(1.00086 0.0170975 0)
(1.00386 0.0158881 0)
(1.00564 0.0157877 0)
(1.0066 0.0169237 0)
(1.00898 0.0157647 0)
(0.999848 0.0103006 0)
(1.00773 -0.00608171 0)
(1.00331 0.001644 0)
(0.993329 -0.00398702 0)
(0.996726 0.0147156 0)
(1.00987 0.00494821 0)
(1.00295 0.00035929 0)
(0.999894 0.00697884 0)
(1.0088 -0.00344894 0)
(0.997333 -0.00152469 0)
(0.99205 0.00283634 0)
(0.995714 0.0010583 0)
(0.993465 0.0112513 0)
(0.994492 0.0128517 0)
(0.998038 0.0123151 0)
(1.00108 0.016501 0)
(1.00367 0.0159818 0)
(1.00571 0.01536 0)
(1.0066 0.0163496 0)
(1.00872 0.0158055 0)
(0.999815 0.00990604 0)
(1.00753 -0.00560717 0)
(1.00338 0.00146589 0)
(0.993678 -0.00337852 0)
(0.996931 0.0137865 0)
(1.00939 0.00523488 0)
(1.00292 0.000191884 0)
(0.999846 0.00704948 0)
(1.00838 -0.00306216 0)
(0.997804 -0.00144166 0)
(0.992061 0.00335854 0)
(0.996265 0.00131382 0)
(0.994098 0.010522 0)
(0.994553 0.0130554 0)
(0.998187 0.0119529 0)
(1.00133 0.0158045 0)
(1.00353 0.0160141 0)
(1.0057 0.0150743 0)
(1.00665 0.0157125 0)
(1.00849 0.0156908 0)
(0.999793 0.00949939 0)
(1.0073 -0.00511558 0)
(1.00347 0.00126597 0)
(0.994003 -0.00275224 0)
(0.997147 0.0128607 0)
(1.00891 0.00551103 0)
(1.0029 5.69225e-05 0)
(0.999803 0.00706511 0)
(1.00797 -0.00260279 0)
(0.998267 -0.00139084 0)
(0.992118 0.00384387 0)
(0.996729 0.00164408 0)
(0.994796 0.00977171 0)
(0.994635 0.0131896 0)
(0.998306 0.0117253 0)
(1.00161 0.0150461 0)
(1.00344 0.0159499 0)
(1.00562 0.0149042 0)
(1.00672 0.0150926 0)
(1.00834 0.0153959 0)
(0.999783 0.00908143 0)
(1.00705 -0.00460769 0)
(1.00356 0.00104962 0)
(0.994315 -0.0021228 0)
(0.997367 0.0119495 0)
(1.00844 0.00576816 0)
(1.0029 -4.17831e-05 0)
(0.99976 0.00701486 0)
(1.00756 -0.0020817 0)
(0.998717 -0.00135966 0)
(0.992228 0.0042698 0)
(0.997107 0.00204577 0)
(0.995542 0.00902637 0)
(0.994763 0.0132356 0)
(0.998387 0.0116304 0)
(1.00192 0.014274 0)
(1.00343 0.0157654 0)
(1.00549 0.0148204 0)
(1.00678 0.014544 0)
(1.00828 0.0149276 0)
(0.999784 0.00865258 0)
(1.00679 -0.00408666 0)
(1.00365 0.000820458 0)
(0.994621 -0.00149313 0)
(0.997585 0.0110605 0)
(1.00798 0.00598522 0)
(1.00291 -9.1346e-05 0)
(0.999721 0.00688712 0)
(1.00716 -0.00152443 0)
(0.999153 -0.0013302 0)
(0.992395 0.00463315 0)
(0.997407 0.00251571 0)
(0.996318 0.00832974 0)
(0.994956 0.0131822 0)
(0.998429 0.0116455 0)
(1.00224 0.0135341 0)
(1.00349 0.0154514 0)
(1.00533 0.0147776 0)
(1.00678 0.0141118 0)
(1.00829 0.0143504 0)
(0.999796 0.00821442 0)
(1.00651 -0.00355322 0)
(1.00372 0.000578118 0)
(0.994923 -0.000862367 0)
(0.997801 0.0102011 0)
(1.00753 0.00615955 0)
(1.00293 -7.23754e-05 0)
(0.999687 0.00668505 0)
(1.00677 -0.000939346 0)
(0.999576 -0.00128401 0)
(0.992619 0.00491103 0)
(0.997639 0.00303842 0)
(0.997103 0.00769467 0)
(0.995227 0.0130199 0)
(0.998435 0.0117431 0)
(1.00256 0.01286 0)
(1.00364 0.0150138 0)
(1.00517 0.0147288 0)
(1.00672 0.0138007 0)
(1.00833 0.013766 0)
(0.999816 0.00776707 0)
(1.00622 -0.00300738 0)
(1.00379 0.000329703 0)
(0.995222 -0.000244325 0)
(0.998012 0.00939575 0)
(1.00711 0.00626646 0)
(1.00296 2.883e-05 0)
(0.999665 0.0064286 0)
(1.00638 -0.000343656 0)
(0.999988 -0.00120721 0)
(0.9929 0.00509515 0)
(0.997816 0.00358311 0)
(0.997876 0.00713276 0)
(0.995582 0.0127438 0)
(0.998414 0.0118855 0)
(1.00285 0.0122885 0)
(1.00387 0.0144735 0)
(1.00503 0.014639 0)
(1.00659 0.0135772 0)
(1.00836 0.0132381 0)
(0.999842 0.00731214 0)
(1.00592 -0.0024565 0)
(1.00385 8.64388e-05 0)
(0.99552 0.000346619 0)
(0.998215 0.00865279 0)
(1.0067 0.00629723 0)
(1.00297 0.000211601 0)
(0.999658 0.006129 0)
(1.00599 0.000228938 0)
(1.00038 -0.00108843 0)
(0.993236 0.00520232 0)
(0.997948 0.00413286 0)
(0.99862 0.00666843 0)
(0.996022 0.0123684 0)
(0.998379 0.0120325 0)
(1.00309 0.0118334 0)
(1.00416 0.0138629 0)
(1.00494 0.0144803 0)
(1.0064 0.0134194 0)
(1.00835 0.0128225 0)
(0.999872 0.00685275 0)
(1.00562 -0.00190209 0)
(1.0039 -0.000158504 0)
(0.995815 0.000900515 0)
(0.998408 0.0079871 0)
(1.00632 0.0062491 0)
(1.00298 0.00045888 0)
(0.999667 0.00581291 0)
(1.00561 0.00077126 0)
(1.00077 -0.000911016 0)
(0.993626 0.00524168 0)
(0.998048 0.00466707 0)
(0.999319 0.00630275 0)
(0.996542 0.0119089 0)
(0.998346 0.0121708 0)
(1.00327 0.011492 0)
(1.0045 0.0132044 0)
(1.00492 0.0142494 0)
(1.00619 0.0132978 0)
(1.00827 0.0125192 0)
(0.999905 0.00638726 0)
(1.0053 -0.00134676 0)
(1.00395 -0.000394596 0)
(0.99611 0.00140168 0)
(0.998585 0.00741224 0)
(1.00596 0.00610805 0)
(1.00298 0.000758851 0)
(0.999693 0.00550965 0)
(1.00524 0.00126897 0)
(1.00113 -0.000680008 0)
(0.994066 0.00524081 0)
(0.998125 0.00516933 0)
(0.99996 0.00602824 0)
(0.997138 0.0113982 0)
(0.998332 0.0122726 0)
(1.00337 0.0112699 0)
(1.00487 0.0125263 0)
(1.00499 0.0139409 0)
(1.00596 0.0131837 0)
(1.00811 0.0122702 0)
(0.999941 0.00592203 0)
(1.00498 -0.000802569 0)
(1.004 -0.000608812 0)
(0.996405 0.00183759 0)
(0.998744 0.00693906 0)
(1.00563 0.005896 0)
(1.00297 0.00108477 0)
(0.999731 0.00523574 0)
(1.00489 0.00170285 0)
(1.00147 -0.000413712 0)
(0.994553 0.00521311 0)
(0.998188 0.00562664 0)
(1.00054 0.00585756 0)
(0.997798 0.0108493 0)
(0.998356 0.0122972 0)
(1.00339 0.0111563 0)
(1.00524 0.0118681 0)
(1.00513 0.0135364 0)
(1.00575 0.0130788 0)
(1.00791 0.0120596 0)
(0.999978 0.00545862 0)
(1.00464 -0.000272495 0)
(1.00404 -0.000795199 0)
(0.996705 0.00219754 0)
(0.998881 0.00656975 0)
(1.00533 0.0056294 0)
(1.00296 0.00140905 0)
(0.99978 0.00501091 0)
(1.00455 0.00207456 0)
(1.00179 -0.000105613 0)
(0.995081 0.00515877 0)
(0.99825 0.00604706 0)
(1.00104 0.00576934 0)
(0.998505 0.010266 0)
(0.998439 0.0122449 0)
(1.00332 0.0111345 0)
(1.00558 0.0112743 0)
(1.00537 0.013024 0)
(1.00557 0.0129705 0)
(1.00765 0.011899 0)
(1.00002 0.00499792 0)
(1.0043 0.000240401 0)
(1.00407 -0.000946811 0)
(0.99701 0.00247242 0)
(0.998994 0.00629509 0)
(1.00504 0.00532897 0)
(1.00295 0.0017153 0)
(0.999835 0.00484571 0)
(1.00422 0.00238868 0)
(1.00209 0.000217923 0)
(0.995647 0.00509204 0)
(0.998317 0.00642244 0)
(1.00146 0.00574853 0)
(0.999246 0.00968078 0)
(0.998601 0.0121119 0)
(1.0032 0.0111758 0)
(1.00586 0.0107816 0)
(1.00569 0.0124132 0)
(1.00545 0.0128065 0)
(1.00734 0.0118065 0)
(1.00006 0.00454551 0)
(1.00394 0.000727989 0)
(1.00409 -0.00105599 0)
(0.997324 0.00265671 0)
(0.999085 0.00610711 0)
(1.00478 0.00501513 0)
(1.00294 0.00197225 0)
(0.999896 0.00474879 0)
(1.00392 0.00266546 0)
(1.00237 0.000526911 0)
(0.996245 0.00501213 0)
(0.998398 0.00674095 0)
(1.0018 0.00580346 0)
(1 0.00911507 0)
(0.998853 0.0118813 0)
(1.00302 0.0112452 0)
(1.00605 0.0104081 0)
(1.00608 0.0117465 0)
(1.00543 0.0125296 0)
(1.00702 0.0117641 0)
(1.0001 0.00410311 0)
(1.00359 0.00118598 0)
(1.00409 -0.0011119 0)
(0.997648 0.0027487 0)
(0.999154 0.00598714 0)
(1.00452 0.00471135 0)
(1.00295 0.00216913 0)
(0.999963 0.00470807 0)
(1.00362 0.00292033 0)
(1.00263 0.000816004 0)
(0.996872 0.00492021 0)
(0.998503 0.00701406 0)
(1.00207 0.00592611 0)
(1.00075 0.00858239 0)
(0.999202 0.0115525 0)
(1.00284 0.0113109 0)
(1.00613 0.0101622 0)
(1.00648 0.0110903 0)
(1.00554 0.0121237 0)
(1.00671 0.0117179 0)
(1.00014 0.00367487 0)
(1.00323 0.00160772 0)
(1.00407 -0.0011172 0)
(0.997983 0.00276285 0)
(0.999206 0.0059169 0)
(1.00428 0.00444513 0)
(1.00298 0.00229912 0)
(1.00004 0.00470621 0)
(1.00333 0.00317791 0)
(1.00286 0.00109913 0)
(0.997527 0.00480852 0)
(0.998641 0.00723327 0)
(1.00225 0.00610629 0)
(1.00148 0.00810347 0)
(0.999648 0.0111288 0)
(1.00267 0.0113236 0)
(1.0061 0.010017 0)
(1.00686 0.0104949 0)
(1.00576 0.0116081 0)
(1.00647 0.011608 0)
(1.00018 0.00326325 0)
(1.00287 0.00198549 0)
(1.00402 -0.00106017 0)
(0.998327 0.00269901 0)
(0.999245 0.00587889 0)
(1.00403 0.00423327 0)
(1.00302 0.00234921 0)
(1.00013 0.00471516 0)
(1.00305 0.00345385 0)
(1.00306 0.00139802 0)
(0.998202 0.00467276 0)
(0.998821 0.00737858 0)
(1.00237 0.00632434 0)
(1.00215 0.00770016 0)
(1.00018 0.0106204 0)
(1.00255 0.0112558 0)
(1.00597 0.00994936 0)
(1.00717 0.00999725 0)
(1.00609 0.011019 0)
(1.00633 0.0113879 0)
(1.00022 0.00287683 0)
(1.00251 0.00230693 0)
(1.00394 -0.000934762 0)
(0.998678 0.00256115 0)
(0.999279 0.00584827 0)
(1.00377 0.00409818 0)
(1.00307 0.00234387 0)
(1.00025 0.00471046 0)
(1.00278 0.00375598 0)
(1.00321 0.00172382 0)
(0.998885 0.00451462 0)
(0.999054 0.00744496 0)
(1.00243 0.00656091 0)
(1.00274 0.00738843 0)
(1.00078 0.0100549 0)
(1.00251 0.0110935 0)
(1.00577 0.00992504 0)
(1.00738 0.00961664 0)
(1.00646 0.0104122 0)
(1.00633 0.011049 0)
(1.00026 0.00251522 0)
(1.00216 0.00257021 0)
(1.00383 -0.000741836 0)
(0.999032 0.00237275 0)
(0.999315 0.00580357 0)
(1.0035 0.00405084 0)
(1.00313 0.00232193 0)
(1.0004 0.00467569 0)
(1.00253 0.00406314 0)
(1.00332 0.00208568 0)
(0.999564 0.00436152 0)
(0.999348 0.00742106 0)
(1.00244 0.00678245 0)
(1.00323 0.00716841 0)
(1.00141 0.00946613 0)
(1.00256 0.0108243 0)
(1.00554 0.00989467 0)
(1.00748 0.00934609 0)
(1.00684 0.00984368 0)
(1.00646 0.0105993 0)
(1.0003 0.00218443 0)
(1.00183 0.00276601 0)
(1.00368 -0.00048413 0)
(0.999385 0.00215394 0)
(0.999365 0.00572031 0)
(1.00321 0.00408845 0)
(1.00318 0.00230532 0)
(1.00058 0.0045979 0)
(1.0023 0.00433462 0)
(1.00337 0.00248302 0)
(1.00022 0.00423038 0)
(0.999698 0.00730153 0)
(1.00243 0.00696562 0)
(1.00363 0.00703599 0)
(1.00205 0.00889891 0)
(1.0027 0.0104633 0)
(1.0053 0.00983239 0)
(1.00747 0.00916972 0)
(1.00717 0.009368 0)
(1.0067 0.0100831 0)
(1.00034 0.00188787 0)
(1.00151 0.00289039 0)
(1.0035 -0.000178619 0)
(0.999729 0.00193145 0)
(0.99944 0.0055727 0)
(1.00292 0.00419146 0)
(1.00322 0.00231917 0)
(1.0008 0.00447741 0)
(1.00211 0.00456267 0)
(1.00338 0.00290353 0)
(1.00083 0.00413993 0)
(1.0001 0.00711026 0)
(1.00243 0.00709581 0)
(1.00392 0.00697234 0)
(1.00267 0.0083837 0)
(1.00294 0.0100339 0)
(1.00511 0.00971613 0)
(1.00737 0.00904229 0)
(1.00741 0.00899355 0)
(1.00698 0.00956458 0)
(1.00038 0.00162474 0)
(1.00122 0.00294766 0)
(1.00329 0.000155091 0)
(1.00006 0.00173116 0)
(0.999545 0.00535323 0)
(1.00262 0.00433572 0)
(1.00323 0.0023899 0)
(1.00104 0.00432405 0)
(1.00197 0.00472817 0)
(1.00335 0.00332503 0)
(1.00138 0.00410678 0)
(1.00055 0.00687124 0)
(1.00245 0.00715137 0)
(1.00412 0.00695433 0)
(1.00324 0.00793839 0)
(1.00326 0.00956075 0)
(1.00497 0.00953753 0)
(1.00722 0.00892982 0)
(1.00756 0.00869893 0)
(1.00726 0.00910632 0)
(1.00041 0.00139727 0)
(1.00095 0.00293966 0)
(1.00306 0.000509309 0)
(1.00035 0.001576 0)
(0.999686 0.00506661 0)
(1.00234 0.00447725 0)
(1.00321 0.0025342 0)
(1.0013 0.00417922 0)
(1.00189 0.00483002 0)
(1.00329 0.00372334 0)
(1.00186 0.00412157 0)
(1.00101 0.00660977 0)
(1.00251 0.00713251 0)
(1.00425 0.00696398 0)
(1.00373 0.00757179 0)
(1.00363 0.00906057 0)
(1.0049 0.00928913 0)
(1.00705 0.00881519 0)
(1.00763 0.00845768 0)
(1.00749 0.00872704 0)
(1.00044 0.00120505 0)
(1.00072 0.00287317 0)
(1.00281 0.000862617 0)
(1.00061 0.00148626 0)
(0.999859 0.00473771 0)
(1.00209 0.00458825 0)
(1.00315 0.00272601 0)
(1.00155 0.00406388 0)
(1.00187 0.00488067 0)
(1.00321 0.00407961 0)
(1.00227 0.00418897 0)
(1.00149 0.0063575 0)
(1.00262 0.00705105 0)
(1.00432 0.00698187 0)
(1.00415 0.00729178 0)
(1.00403 0.00856821 0)
(1.00493 0.00896869 0)
(1.00688 0.00867917 0)
(1.00764 0.00824754 0)
(1.00767 0.00839956 0)
(1.00046 0.00104262 0)
(1.00052 0.00276653 0)
(1.00255 0.00118893 0)
(1.00083 0.00146531 0)
(1.00006 0.00438674 0)
(1.00188 0.00465296 0)
(1.00307 0.00293672 0)
(1.00179 0.00398091 0)
(1.00189 0.00488277 0)
(1.00314 0.00438309 0)
(1.0026 0.00428815 0)
(1.00195 0.00611877 0)
(1.00278 0.00690827 0)
(1.00437 0.00697615 0)
(1.00447 0.00708186 0)
(1.00442 0.00812318 0)
(1.00503 0.0085953 0)
(1.00673 0.00850186 0)
(1.00759 0.00806422 0)
(1.00779 0.00811211 0)
(1.00049 0.000912593 0)
(1.00035 0.00262776 0)
(1.0023 0.00146309 0)
(1.001 0.0014984 0)
(1.00028 0.00404875 0)
(1.00172 0.004652 0)
(1.00297 0.00316095 0)
(1.00201 0.00395214 0)
(1.00197 0.00485641 0)
(1.00307 0.00464229 0)
(1.00287 0.00441039 0)
(1.00239 0.00591398 0)
(1.00298 0.0067308 0)
(1.00442 0.00693737 0)
(1.00472 0.00691908 0)
(1.00478 0.00774038 0)
(1.00519 0.00819915 0)
(1.00664 0.00826178 0)
(1.00752 0.00788041 0)
(1.00787 0.00784995 0)
(1.0005 0.000802501 0)
(1.00021 0.00249124 0)
(1.00206 0.00170124 0)
(1.00114 0.00157071 0)
(1.00051 0.00372446 0)
(1.00162 0.00458576 0)
(1.00287 0.00335605 0)
(1.00221 0.00394623 0)
(1.00207 0.00479818 0)
(1.00302 0.00483047 0)
(1.00307 0.00453489 0)
(1.00279 0.00574082 0)
(1.00321 0.00652312 0)
(1.00448 0.00686285 0)
(1.00492 0.00679229 0)
(1.00509 0.00742423 0)
(1.00539 0.00782516 0)
(1.0066 0.00798577 0)
(1.00744 0.00768238 0)
(1.00789 0.00762116 0)
(1.00052 0.000706252 0)
(1.0001 0.00232319 0)
(1.00184 0.00188435 0)
(1.00122 0.00168763 0)
(1.00073 0.00346832 0)
(1.00156 0.00451004 0)
(1.00277 0.00352903 0)
(1.00238 0.00397005 0)
(1.00221 0.00473551 0)
(1.00299 0.00495867 0)
(1.00323 0.00464703 0)
(1.00314 0.00559218 0)
(1.00347 0.0062813 0)
(1.00457 0.00673198 0)
(1.00507 0.00666184 0)
(1.00536 0.00714368 0)
(1.00559 0.00746441 0)
(1.00661 0.00768327 0)
(1.00739 0.00744068 0)
(1.00788 0.00739161 0)
(1.00053 0.000647231 0)
(1.00002 0.00215482 0)
(1.00164 0.00197555 0)
(1.00129 0.00180815 0)
(1.00095 0.00327526 0)
(1.00154 0.00441585 0)
(1.00269 0.00366648 0)
(1.00253 0.004007 0)
(1.00236 0.00466363 0)
(1.00299 0.00504447 0)
(1.00334 0.00475414 0)
(1.00344 0.00548849 0)
(1.00374 0.00605349 0)
(1.00468 0.00657004 0)
(1.0052 0.00652997 0)
(1.00557 0.00691447 0)
(1.00579 0.00714517 0)
(1.00665 0.00739555 0)
(1.00735 0.00719245 0)
(1.00787 0.00715894 0)
(1.00054 0.000593878 0)
(0.999962 0.00201336 0)
(1.00147 0.0020558 0)
(1.00133 0.00195566 0)
(1.00116 0.00313292 0)
(1.00157 0.00429789 0)
(1.00262 0.00375668 0)
(1.00266 0.00402701 0)
(1.00253 0.00456915 0)
(1.00302 0.00507785 0)
(1.00344 0.00484218 0)
(1.00369 0.00540425 0)
(1.00401 0.0058359 0)
(1.00483 0.00636871 0)
(1.00534 0.00636657 0)
(1.00576 0.00669649 0)
(1.00599 0.00684926 0)
(1.00671 0.00710767 0)
(1.00734 0.00694535 0)
(1.00786 0.00690983 0)
(1.00054 0.000541341 0)
(0.99992 0.00189983 0)
(1.00133 0.00215857 0)
(1.00136 0.00210906 0)
(1.00135 0.00301385 0)
(1.00161 0.00415133 0)
(1.00255 0.00379228 0)
(1.00275 0.00401329 0)
(1.0027 0.00444301 0)
(1.00308 0.0050481 0)
(1.00352 0.00489072 0)
(1.00389 0.00532928 0)
(1.00425 0.00562203 0)
(1.00498 0.00614087 0)
(1.00547 0.00617233 0)
(1.00592 0.0064759 0)
(1.00616 0.00657296 0)
(1.00679 0.00681863 0)
(1.00733 0.00670337 0)
(1.00785 0.00665717 0)
(1.00054 0.000514385 0)
(0.999897 0.00181855 0)
(1.00121 0.00219886 0)
(1.00136 0.00220541 0)
(1.00151 0.00288152 0)
(1.00167 0.00398689 0)
(1.0025 0.00379634 0)
(1.00283 0.00401113 0)
(1.00287 0.00432905 0)
(1.00318 0.00499965 0)
(1.00359 0.0049295 0)
(1.00403 0.00529826 0)
(1.00446 0.0054562 0)
(1.00515 0.00592664 0)
(1.00561 0.00597466 0)
(1.00607 0.00626624 0)
(1.00632 0.00632174 0)
(1.00689 0.0065389 0)
(1.00733 0.00646308 0)
(1.00783 0.00642212 0)
(1.00054 0.000492441 0)
(0.999879 0.00172059 0)
(1.0011 0.00220569 0)
(1.00135 0.00231497 0)
(1.00165 0.00281262 0)
(1.00176 0.00385643 0)
(1.00247 0.00380152 0)
(1.00288 0.00403066 0)
(1.00303 0.00422242 0)
(1.00329 0.00490144 0)
(1.00366 0.00490855 0)
(1.00414 0.00524991 0)
(1.00462 0.00530296 0)
(1.00529 0.00569617 0)
(1.00575 0.00573894 0)
(1.0062 0.00602653 0)
(1.00646 0.00606465 0)
(1.00698 0.00625371 0)
(1.00735 0.00620077 0)
(1.0078 0.00619304 0)
(1.00053 0.000467869 0)
(0.999874 0.00165499 0)
(1.00102 0.00221693 0)
(1.00132 0.00240808 0)
(1.00175 0.00274714 0)
(1.00184 0.00370792 0)
(1.00246 0.00376436 0)
(1.0029 0.00402819 0)
(1.00316 0.0041173 0)
(1.00341 0.00476421 0)
(1.00375 0.0048418 0)
(1.00422 0.00518688 0)
(1.00473 0.00518022 0)
(1.00541 0.00549487 0)
(1.00588 0.00550666 0)
(1.00634 0.00577678 0)
(1.00658 0.00582032 0)
(1.00707 0.00598628 0)
(1.00739 0.00593266 0)
(1.00777 0.00596213 0)
(1.00052 0.000456231 0)
(0.999874 0.00158938 0)
(1.00096 0.00218823 0)
(1.00129 0.00246521 0)
(1.00184 0.00269888 0)
(1.00194 0.00357164 0)
(1.00246 0.00371185 0)
(1.00292 0.00402201 0)
(1.00327 0.00403294 0)
(1.00354 0.00461475 0)
(1.00385 0.00473409 0)
(1.00428 0.00509771 0)
(1.00481 0.00506109 0)
(1.00549 0.00531445 0)
(1.00599 0.00528519 0)
(1.00646 0.00551097 0)
(1.0067 0.00555813 0)
(1.00713 0.00572293 0)
(1.00743 0.00565397 0)
(1.00776 0.00570987 0)
(1.00052 0.000442386 0)