/*--------------------------------*- C++ -*----------------------------------*\
| =========                 |                                                 |
| \\      /  F ield         | OpenFOAM: The Open Source CFD Toolbox           |
|  \\    /   O peration     | Version:  2506                                  |
|   \\  /    A nd           | Website:  www.openfoam.com                      |
|    \\/     M anipulation  |                                                 |
\*---------------------------------------------------------------------------*/
FoamFile
{
    version     2.0;
    format      ascii;
    arch        "LSB;label=32;scalar=64";
    class       surfaceScalarField;
    location    "3.65";
    object      phi;
}
// * * * * * * * * * * * * * * * * * * * * * * * * * * * * * * * * * * * * * //

dimensions      [0 3 -1 0 0 0 0];

oriented        oriented;

internalField   nonuniform List<scalar> 
19000
(
1.17174e-06
6.74903e-07
1.16397e-06
-7.03397e-07
1.22136e-06
1.09941e-06
1.07745e-06
-3.9815e-07
1.09703e-06
-3.52233e-07
1.20501e-06
4.92506e-07
1.15627e-06
1.51664e-07
1.13647e-06
-1.45862e-08
1.16634e-06
8.07957e-07
1.10346e-06
1.21272e-07
1.13164e-06
7.55332e-07
1.0924e-06
-3.69585e-08
1.12261e-06
-2.1047e-07
1.12486e-06
-2.62808e-08
1.12466e-06
-1.78839e-07
1.13795e-06
4.89587e-08
1.14173e-06
-7.05957e-08
1.13943e-06
4.80278e-08
1.13969e-06
-2.15092e-09
8.22318e-08
1.11762e-06
1.22386e-06
6.75302e-07
1.2163e-06
-6.95831e-07
1.27435e-06
1.04136e-06
1.13121e-06
-2.55012e-07
1.1511e-06
-3.72117e-07
1.26373e-06
3.7987e-07
1.21259e-06
2.0281e-07
1.1932e-06
4.80341e-09
1.21874e-06
7.82419e-07
1.16068e-06
1.79324e-07
1.17699e-06
7.39029e-07
1.15258e-06
-1.25525e-08
1.17285e-06
-2.30742e-07
1.18989e-06
-4.33184e-08
1.17694e-06
-1.65886e-07
1.20722e-06
1.86744e-08
1.19074e-06
-5.41157e-08
1.21151e-06
2.72627e-08
1.18251e-06
2.68426e-08
6.42164e-08
1.20053e-06
1.27925e-06
6.78832e-07
1.26857e-06
-6.85149e-07
1.3263e-06
9.83625e-07
1.19814e-06
-1.26847e-07
1.2075e-06
-3.81479e-07
1.32104e-06
2.66331e-07
1.2737e-06
2.50148e-07
1.25302e-06
2.54852e-08
1.27091e-06
7.6453e-07
1.22573e-06
2.24503e-07
1.23005e-06
7.34709e-07
1.22473e-06
-7.22883e-09
1.22866e-06
-2.34678e-07
1.25619e-06
-7.08503e-08
1.23631e-06
-1.46005e-07
1.26473e-06
-9.74648e-09
1.25053e-06
-3.99129e-08
1.26183e-06
1.59642e-08
1.24755e-06
4.11177e-08
6.94259e-08
1.24234e-06
1.33833e-06
6.84609e-07
1.32396e-06
-6.70781e-07
1.37893e-06
9.28653e-07
1.27824e-06
-2.61596e-08
1.2687e-06
-3.7194e-07
1.37542e-06
1.59614e-07
1.33785e-06
2.87722e-07
1.31465e-06
4.86808e-08
1.32448e-06
7.54706e-07
1.29482e-06
2.54164e-07
1.2933e-06
7.36226e-07
1.30033e-06
-1.42562e-08
1.2935e-06
-2.27853e-07
1.31904e-06
-9.63893e-08
1.30556e-06
-1.32525e-07
1.32136e-06
-2.55442e-08
1.31704e-06
-3.55975e-08
1.31888e-06
1.41263e-08
1.31211e-06
4.78874e-08
7.92117e-08
1.30232e-06
1.40173e-06
6.91232e-07
1.38427e-06
-6.53319e-07
1.43382e-06
8.79104e-07
1.36681e-06
4.08442e-08
1.33574e-06
-3.40865e-07
1.42707e-06
6.82816e-08
1.40541e-06
3.09387e-07
1.37809e-06
7.59989e-08
1.38085e-06
7.51947e-07
1.36478e-06
2.70229e-07
1.36514e-06
7.35869e-07
1.37598e-06
-2.50968e-08
1.3661e-06
-2.17975e-07
1.38395e-06
-1.14235e-07
1.37961e-06
-1.28193e-07
1.3873e-06
-3.32253e-08
1.38647e-06
-3.47741e-08
1.38638e-06
1.42167e-08
1.37966e-06
5.46108e-08
8.93264e-08
1.36954e-06
1.46973e-06
6.97176e-07
1.45048e-06
-6.34063e-07
1.49275e-06
8.3683e-07
1.45752e-06
7.60727e-08
1.40957e-06
-2.92913e-07
1.47952e-06
-1.67015e-09
1.476e-06
3.12905e-07
1.44513e-06
1.0687e-07
1.4427e-06
7.54375e-07
1.43618e-06
2.76749e-07
1.44222e-06
7.29833e-07
1.45293e-06
-3.58077e-08
1.44326e-06
-2.08308e-07
1.45395e-06
-1.24921e-07
1.45449e-06
-1.28736e-07
1.45992e-06
-3.86516e-08
1.45899e-06
-3.38426e-08
1.45825e-06
1.49577e-08
1.45162e-06
6.1237e-08
1.0085e-07
1.4401e-06
1.54224e-06
7.01148e-07
1.5226e-06
-6.14413e-07
1.557e-06
8.02425e-07
1.54604e-06
8.70287e-08
1.49026e-06
-2.3713e-07
1.53744e-06
-4.88504e-08
1.54863e-06
3.01719e-07
1.51742e-06
1.3808e-07
1.51248e-06
7.59309e-07
1.51148e-06
2.77751e-07
1.52263e-06
7.18685e-07
1.5325e-06
-4.56761e-08
1.52312e-06
-1.98931e-07
1.52855e-06
-1.30351e-07
1.53005e-06
-1.30233e-07
1.535e-06
-4.36008e-08
1.53434e-06
-3.31851e-08
1.5323e-06
1.69963e-08
1.52623e-06
6.73037e-08
1.13585e-07
1.5135e-06
1.61888e-06
7.02394e-07
1.59997e-06
-5.95498e-07
1.62695e-06
7.75447e-07
1.63116e-06
8.28097e-08
1.5764e-06
-1.82368e-07
1.60376e-06
-7.62097e-08
1.62279e-06
2.82689e-07
1.5951e-06
1.65771e-07
1.59062e-06
7.63789e-07
1.59229e-06
2.76082e-07
1.60626e-06
7.04712e-07
1.61488e-06
-5.42947e-08
1.60538e-06
-1.89425e-07
1.60682e-06
-1.31795e-07
1.60749e-06
-1.30898e-07
1.61134e-06
-4.74563e-08
1.61168e-06
-3.35191e-08
1.60848e-06
2.01956e-08
1.60292e-06
7.28589e-08
1.26692e-07
1.58981e-06
1.69917e-06
7.00801e-07
1.68174e-06
-5.78066e-07
1.70228e-06
7.54905e-07
1.7139e-06
7.11839e-08
1.66591e-06
-1.34372e-07
1.67882e-06
-8.91183e-08
1.69915e-06
2.62356e-07
1.67723e-06
1.87688e-07
1.67542e-06
7.65605e-07
1.67831e-06
2.73192e-07
1.69332e-06
6.89698e-07
1.69979e-06
-6.07641e-08
1.69017e-06
-1.79807e-07
1.68837e-06
-1.29997e-07
1.68781e-06
-1.30335e-07
1.68961e-06
-4.92544e-08
1.69079e-06
-3.46976e-08
1.68684e-06
2.41422e-08
1.68185e-06
7.78497e-08
1.39196e-07
1.66934e-06
1.78277e-06
6.9675e-07
1.76722e-06
-5.62513e-07
1.78252e-06
7.39606e-07
1.79627e-06
5.74352e-08
1.75733e-06
-9.54311e-08
1.7613e-06
-9.30869e-08
1.7789e-06
2.4475e-07
1.76284e-06
2.03754e-07
1.76454e-06
7.63901e-07
1.76812e-06
2.69611e-07
1.78351e-06
6.74312e-07
1.78702e-06
-6.42729e-08
1.77763e-06
-1.70425e-07
1.77313e-06
-1.25496e-07
1.77162e-06
-1.28819e-07
1.77084e-06
-4.84801e-08
1.77224e-06
-3.60946e-08
1.76773e-06
2.86533e-08
1.76326e-06
8.23177e-08
1.50122e-07
1.75233e-06
1.86966e-06
6.90837e-07
1.85606e-06
-5.48909e-07
1.86737e-06
7.28291e-07
1.88033e-06
4.44778e-08
1.85034e-06
-6.54464e-08
1.84953e-06
-9.2269e-08
1.86297e-06
2.31309e-07
1.85152e-06
2.15203e-07
1.85653e-06
7.58893e-07
1.86057e-06
2.65566e-07
1.87639e-06
6.58493e-07
1.87664e-06
-6.45187e-08
1.86792e-06
-1.61714e-07
1.86117e-06
-1.18743e-07
1.85921e-06
-1.26861e-07
1.8559e-06
-4.51618e-08
1.85689e-06
-3.70905e-08
1.85189e-06
3.36542e-08
1.84759e-06
8.66169e-08
1.58747e-07
1.83897e-06
1.96004e-06
6.8364e-07
1.94816e-06
-5.37031e-07
1.95677e-06
7.19676e-07
1.96774e-06
3.35159e-08
1.94539e-06
-4.30989e-08
1.94222e-06
-8.90994e-08
1.95171e-06
2.21815e-07
1.94342e-06
2.23498e-07
1.95111e-06
7.51199e-07
1.95536e-06
2.61315e-07
1.97187e-06
6.41989e-07
1.96897e-06
-6.16217e-08
1.96127e-06
-1.54018e-07
1.95264e-06
-1.10109e-07
1.95071e-06
-1.24934e-07
1.94529e-06
-3.97391e-08
1.94544e-06
-3.72378e-08
1.94016e-06
3.89323e-08
1.93549e-06
9.12819e-08
1.64745e-07
1.9295e-06
2.05424e-06
6.75588e-07
2.04363e-06
-5.26423e-07
2.05079e-06
7.12518e-07
2.05955e-06
2.47535e-08
2.04308e-06
-2.66216e-08
2.03864e-06
-8.46657e-08
2.04516e-06
2.15294e-07
2.03888e-06
2.2978e-07
2.04871e-06
7.41368e-07
2.05285e-06
2.57177e-07
2.07022e-06
6.24624e-07
2.06448e-06
-5.58838e-08
2.05798e-06
-1.47519e-07
2.04776e-06
-9.98899e-08
2.04614e-06
-1.23317e-07
2.03928e-06
-3.28767e-08
2.03827e-06
-3.62224e-08
2.03313e-06
4.40695e-08
2.02764e-06
9.67682e-08
1.68181e-07
2.02421e-06
2.15265e-06
6.66941e-07
2.14272e-06
-5.16499e-07
2.14953e-06
7.05708e-07
2.15635e-06
1.79384e-08
2.14398e-06
-1.42525e-08
2.13858e-06
-7.92624e-08
2.14329e-06
2.10583e-07
2.13825e-06
2.34814e-07
2.14986e-06
7.29758e-07
2.1536e-06
2.53443e-07
2.17189e-06
6.06325e-07
2.16366e-06
-4.7651e-08
2.15838e-06
-1.42238e-07
2.14682e-06
-8.83245e-08
2.14556e-06
-1.22062e-07
2.13799e-06
-2.53039e-08
2.13554e-06
-3.3777e-08
2.13108e-06
4.8534e-08
2.12459e-06
1.03255e-07
1.69495e-07
2.12328e-06
2.25561e-06
6.57819e-07
2.24577e-06
-5.06657e-07
2.25311e-06
6.98361e-07
2.25835e-06
1.27059e-08
2.24861e-06
-4.51995e-09
2.24217e-06
-7.28194e-08
2.24613e-06
2.06626e-07
2.24182e-06
2.39125e-07
2.255e-06
7.16574e-07
2.25813e-06
2.50314e-07
2.27737e-06
5.87085e-07
2.267e-06
-3.7279e-08
2.26284e-06
-1.38076e-07
2.25016e-06
-7.56432e-08
2.2491e-06
-1.21002e-07
2.24152e-06
-1.77315e-08
2.23739e-06
-2.96414e-08
2.23408e-06
5.1839e-08
2.22675e-06
1.1059e-07
1.69447e-07
2.2268e-06
2.36345e-06
6.48245e-07
2.35317e-06
-4.96378e-07
2.36167e-06
6.89859e-07
2.36562e-06
8.75541e-09
2.3575e-06
3.60345e-09
2.34983e-06
-6.51466e-08
2.35385e-06
2.02604e-07
2.34987e-06
2.43102e-07
2.3645e-06
7.01945e-07
2.36693e-06
2.47887e-07
2.38708e-06
5.66936e-07
2.37493e-06
-2.51321e-08
2.37171e-06
-1.34857e-07
2.35818e-06
-6.21077e-08
2.35698e-06
-1.19805e-07
2.35005e-06
-1.07975e-08
2.34401e-06
-2.3608e-08
2.34215e-06
5.37035e-08
2.33436e-06
1.18375e-07
1.68933e-07
2.33488e-06
2.47646e-06
6.38177e-07
2.46536e-06
-4.8527e-07
2.47538e-06
6.79832e-07
2.47822e-06
5.91529e-09
2.47114e-06
1.06824e-08
2.46205e-06
-5.60542e-08
2.46669e-06
1.97968e-07
2.46275e-06
2.47034e-07
2.47873e-06
6.85974e-07
2.48043e-06
2.46185e-07
2.50141e-06
5.45955e-07
2.48786e-06
-1.15825e-08
2.48536e-06
-1.32358e-07
2.47129e-06
-4.80356e-08
2.46951e-06
-1.18025e-07
2.46376e-06
-5.0525e-09
2.45575e-06
-1.55914e-08
2.45525e-06
5.41994e-08
2.44761e-06
1.26012e-07
1.68768e-07
2.44778e-06
2.59493e-06
6.27543e-07
2.58272e-06
-4.73066e-07
2.59446e-06
6.681e-07
2.59623e-06
4.14336e-09
2.59e-06
1.69118e-08
2.57936e-06
-4.54127e-08
2.58492e-06
1.92408e-07
2.58083e-06
2.5112e-07
2.59803e-06
6.68776e-07
2.59905e-06
2.45166e-07
2.62073e-06
5.24275e-07
2.60615e-06
2.99706e-09
2.60412e-06
-1.30327e-07
2.58989e-06
-3.38084e-08
2.58702e-06
-1.15157e-07
2.58286e-06
-8.92265e-10
2.57301e-06
-5.74322e-09
2.57343e-06
5.37789e-08
2.56666e-06
1.32782e-07
1.69523e-07
2.56591e-06
2.71912e-06
6.16256e-07
2.70565e-06
-4.59597e-07
2.71915e-06
6.54602e-07
2.71979e-06
3.50026e-09
2.71445e-06
2.22481e-08
2.70221e-06
-3.31726e-08
2.70883e-06
1.85789e-07
2.70447e-06
2.55479e-07
2.72275e-06
6.50502e-07
2.72318e-06
2.44737e-07
2.74537e-06
5.02085e-07
2.73013e-06
1.82318e-08
2.72829e-06
-1.28483e-07
2.71434e-06
-1.98644e-08
2.70989e-06
-1.10702e-07
2.70751e-06
1.48309e-09
2.69622e-06
5.54616e-09
2.69686e-06
5.31391e-08
2.69166e-06
1.37987e-07
1.71443e-07
2.68974e-06
2.84929e-06
6.04234e-07
2.83446e-06
-4.44767e-07
2.84973e-06
6.39333e-07
2.84912e-06
4.11253e-09
2.84484e-06
2.6528e-08
2.83102e-06
-1.93569e-08
2.83871e-06
1.78096e-07
2.83403e-06
2.60157e-07
2.8532e-06
6.31341e-07
2.85318e-06
2.44749e-07
2.87564e-06
4.79631e-07
2.86013e-06
3.37431e-08
2.85817e-06
-1.26522e-07
2.84495e-06
-6.65135e-09
2.83851e-06
-1.04262e-07
2.83789e-06
2.10526e-09
2.82573e-06
1.77069e-08
2.82583e-06
5.30361e-08
2.82272e-06
1.41097e-07
1.74436e-07
2.81973e-06
2.98572e-06
5.91408e-07
2.96947e-06
-4.28516e-07
2.9865e-06
6.22304e-07
2.98448e-06
6.13257e-09
2.98144e-06
2.95663e-08
2.96613e-06
-4.04826e-09
2.97484e-06
1.69393e-07
2.96986e-06
2.65138e-07
2.98967e-06
6.11523e-07
2.98943e-06
2.44989e-07
3.01185e-06
4.57216e-07
2.99643e-06
4.91664e-08
2.99405e-06
-1.2415e-07
2.98197e-06
5.43154e-09
2.97334e-06
-9.5628e-08
2.97417e-06
1.26776e-09
2.96182e-06
3.00607e-08
2.96076e-06
5.41002e-08
2.95994e-06
1.4191e-07
1.78093e-07
2.95629e-06
3.12869e-06
5.77721e-07
3.11098e-06
-4.10806e-07
3.12977e-06
6.03513e-07
3.1262e-06
9.70204e-09
3.12455e-06
3.12178e-08
3.10788e-06
1.26283e-08
3.11747e-06
1.598e-07
3.11227e-06
2.70336e-07
3.13247e-06
5.91321e-07
3.13227e-06
2.45192e-07
3.15432e-06
4.35164e-07
3.1393e-06
6.41925e-08
3.13627e-06
-1.21129e-07
3.12561e-06
1.60928e-08
3.11478e-06
-8.47919e-08
3.11661e-06
-5.62237e-10
3.10472e-06
4.19436e-08
3.1021e-06
5.6723e-08
3.10343e-06
1.40586e-07
1.81784e-07
3.09973e-06
3.2785e-06
5.63136e-07
3.25929e-06
-3.91603e-07
3.27985e-06
5.82952e-07
3.27463e-06
1.49278e-08
3.27444e-06
3.14035e-08
3.25655e-06
3.0518e-08
3.26688e-06
1.49476e-07
3.26162e-06
2.75592e-07
3.28189e-06
5.71053e-07
3.28204e-06
2.45044e-07
3.3034e-06
4.13802e-07
3.28901e-06
7.8577e-08
3.28516e-06
-1.17273e-07
3.2761e-06
2.51548e-08
3.26322e-06
-7.19192e-08
3.26549e-06
-2.82911e-09
3.25467e-06
5.2763e-08
3.25032e-06
6.1079e-08
3.25334e-06
1.37558e-07
1.84776e-07
3.25035e-06
3.43544e-06
5.47623e-07
3.41472e-06
-3.70879e-07
3.43706e-06
5.60609e-07
3.43013e-06
2.18649e-08
3.43141e-06
3.01184e-08
3.41249e-06
4.94358e-08
3.42334e-06
1.38629e-07
3.41826e-06
2.80672e-07
3.43824e-06
5.51076e-07
3.43905e-06
2.44228e-07
3.45945e-06
3.93402e-07
3.44586e-06
9.21692e-08
3.44107e-06
-1.12479e-07
3.43365e-06
3.25696e-08
3.41905e-06
-5.73135e-08
3.42118e-06
-4.96464e-09
3.41186e-06
6.20847e-08
3.40584e-06
6.71039e-08
3.40996e-06
1.33431e-07
1.86385e-07
3.40835e-06
3.59987e-06
5.31162e-07
3.5776e-06
-3.48608e-07
3.60172e-06
5.3649e-07
3.59308e-06
3.05085e-08
3.59577e-06
2.74275e-08
3.57604e-06
6.91585e-08
3.58716e-06
1.27511e-07
3.58256e-06
2.85273e-07
3.60187e-06
5.3177e-07
3.60363e-06
2.42465e-07
3.62289e-06
3.74137e-07
3.61013e-06
1.04933e-07
3.60438e-06
-1.0673e-07
3.59856e-06
3.83892e-08
3.58258e-06
-4.13335e-08
3.58409e-06
-6.46987e-09
3.57653e-06
6.96408e-08
3.56907e-06
7.45614e-08
3.5736e-06
1.28899e-07
1.86045e-07
3.57394e-06
3.77213e-06
5.13741e-07
3.7483e-06
-3.24786e-07
3.77416e-06
5.1063e-07
3.76388e-06
4.0794e-08
3.76785e-06
2.34567e-08
3.74759e-06
8.94134e-08
3.75867e-06
1.16438e-07
3.75491e-06
2.89029e-07
3.77316e-06
5.13526e-07
3.77607e-06
2.39553e-07
3.79417e-06
3.56039e-07
3.78213e-06
1.16968e-07
3.77549e-06
-1.00091e-07
3.77116e-06
4.27256e-08
3.75417e-06
-2.43459e-08
3.75463e-06
-6.93287e-09
3.749e-06
7.52775e-08
3.74045e-06
8.31106e-08
3.74465e-06
1.24693e-07
1.83411e-07
3.74729e-06
3.95257e-06
4.95354e-07
3.92722e-06
-2.99429e-07
3.95474e-06
4.83104e-07
3.94294e-06
5.25943e-08
3.94801e-06
1.83919e-08
3.92756e-06
1.09865e-07
3.9382e-06
1.05794e-07
3.93571e-06
2.91521e-07
3.95253e-06
4.96706e-07
3.95667e-06
2.35417e-07
3.97372e-06
3.38986e-07
3.96223e-06
1.28455e-07
3.95478e-06
-9.26373e-08
3.95181e-06
4.56966e-08
3.93419e-06
-6.72524e-09
3.93325e-06
-5.99303e-09
3.92958e-06
7.89469e-08
3.92044e-06
9.22479e-08
3.92352e-06
1.2161e-07
1.78403e-07
3.92853e-06
4.1416e-06
4.7601e-07
4.11476e-06
-2.72589e-07
4.14383e-06
4.54032e-07
4.1307e-06
6.57255e-08
4.13661e-06
1.24807e-08
4.11637e-06
1.30101e-07
4.12614e-06
9.60283e-08
4.12536e-06
2.92301e-07
4.14046e-06
4.81604e-07
4.14574e-06
2.30139e-07
4.162e-06
3.2272e-07
4.15086e-06
1.39598e-07
4.14258e-06
-8.43636e-08
4.14094e-06
4.73374e-08
4.12302e-06
1.11966e-08
4.12039e-06
-3.36071e-09
4.1186e-06
8.07383e-08
4.1095e-06
1.01343e-07
4.11081e-06
1.203e-07
1.71423e-07
4.11779e-06
4.33959e-06
4.55727e-07
4.31135e-06
-2.44353e-07
4.34179e-06
4.23593e-07
4.32758e-06
7.99344e-08
4.33402e-06
6.04302e-09
4.31448e-06
1.49634e-07
4.32286e-06
8.76487e-08
4.32424e-06
2.90928e-07
4.33746e-06
4.68381e-07
4.3436e-06
2.23996e-07
4.35942e-06
3.06904e-07
4.34848e-06
1.50533e-07
4.33928e-06
-7.5161e-08
4.33897e-06
4.7648e-08
4.32111e-06
2.90583e-08
4.31653e-06
1.21335e-09
4.31642e-06
8.08554e-08
4.30803e-06
1.09728e-07
4.30727e-06
1.21065e-07
1.63393e-07
4.3153e-06
4.54696e-06
4.34544e-07
4.51745e-06
-2.1485e-07
4.54903e-06
3.92021e-07
4.53406e-06
9.48965e-08
4.54062e-06
-5.16325e-10
4.52236e-06
1.67892e-07
4.5288e-06
8.12093e-08
4.5327e-06
2.87034e-07
4.54408e-06
4.57e-07
4.55063e-06
2.17443e-07
4.56637e-06
2.91171e-07
4.55561e-06
1.6129e-07
4.54528e-06
-6.4828e-08
4.54629e-06
4.66325e-08
4.52889e-06
4.64557e-08
4.52223e-06
7.8765e-09
4.52338e-06
7.97052e-08
4.51637e-06
1.16736e-07
4.51366e-06
1.23774e-07
1.55578e-07
4.52148e-06
4.76414e-06
4.1252e-07
4.73354e-06
-1.84251e-07
4.76594e-06
3.59619e-07
4.75063e-06
1.10204e-07
4.75683e-06
-6.70966e-09
4.74047e-06
1.84246e-07
4.7444e-06
7.72791e-08
4.75103e-06
2.80412e-07
4.76086e-06
4.47169e-07
4.76726e-06
2.11039e-07
4.78321e-06
2.75219e-07
4.77275e-06
1.71756e-07
4.76105e-06
-5.31291e-08
4.76326e-06
4.44212e-08
4.74687e-06
6.28458e-08
4.73799e-06
1.67577e-08
4.73994e-06
7.77589e-08
4.73476e-06
1.21912e-07
4.73068e-06
1.27849e-07
1.49135e-07
4.73713e-06
4.99158e-06
3.89737e-07
4.9601e-06
-1.52775e-07
4.99296e-06
3.26766e-07
4.9778e-06
1.25356e-07
4.98307e-06
-1.19802e-08
4.96929e-06
1.98033e-07
4.97017e-06
7.63987e-08
4.9795e-06
2.71085e-07
4.98833e-06
4.38338e-07
4.99399e-06
2.05373e-07
5.01035e-06
2.58864e-07
5.00042e-06
1.81684e-07
4.98711e-06
-3.98189e-08
4.9903e-06
4.12329e-08
4.97544e-06
7.77023e-08
4.96441e-06
2.77906e-08
4.96659e-06
7.55754e-08
4.96343e-06
1.25077e-07
4.95887e-06
1.3241e-07
1.44798e-07
4.9632e-06
5.22975e-06
3.663e-07
5.19767e-06
-1.20691e-07
5.2305e-06
2.93933e-07
5.21609e-06
1.39767e-07
5.21985e-06
-1.57339e-08
5.20928e-06
2.08602e-07
5.20678e-06
7.88999e-08
5.21843e-06
2.59431e-07
5.22697e-06
4.29796e-07
5.23142e-06
2.00923e-07
5.24815e-06
2.42138e-07
5.23912e-06
1.90711e-07
5.22405e-06
-2.47524e-08
5.22783e-06
3.74549e-08
5.21502e-06
9.05117e-08
5.20206e-06
4.07578e-08
5.20391e-06
7.37171e-08
5.20274e-06
1.26251e-07
5.19846e-06
1.36687e-07
1.4259e-07
5.20067e-06
5.47915e-06
3.42342e-07
5.44679e-06
-8.83293e-08
5.47902e-06
2.61698e-07
5.46603e-06
1.52761e-07
5.46767e-06
-1.73766e-08
5.4609e-06
2.15375e-07
5.45507e-06
8.47245e-08
5.46829e-06
2.46214e-07
5.47725e-06
4.20839e-07
5.48019e-06
1.97983e-07
5.49706e-06
2.25264e-07
5.48932e-06
1.98453e-07
5.47248e-06
-7.91309e-09
5.47632e-06
3.3619e-08
5.46603e-06
1.00794e-07
5.45149e-06
5.52993e-08
5.45249e-06
7.27198e-08
5.45318e-06
1.25561e-07
5.44967e-06
1.40194e-07
1.42e-07
5.45026e-06
5.74028e-06
3.1802e-07
5.70803e-06
-5.60757e-08
5.73897e-06
2.30751e-07
5.72812e-06
1.63616e-07
5.72714e-06
-1.63943e-08
5.72452e-06
2.17995e-07
5.71593e-06
9.33071e-08
5.72969e-06
2.32455e-07
5.73961e-06
4.10919e-07
5.74095e-06
1.96647e-07
5.75756e-06
2.08649e-07
5.75146e-06
2.04555e-07
5.73299e-06
1.0559e-08
5.73627e-06
3.03432e-08
5.72886e-06
1.08202e-07
5.71333e-06
7.08216e-08
5.71287e-06
7.31813e-08
5.71529e-06
1.23141e-07
5.71283e-06
1.42661e-07
1.4234e-07
5.71249e-06
6.01369e-06
2.9352e-07
5.98199e-06
-2.43755e-08
6.01083e-06
2.01913e-07
6.00285e-06
1.71595e-07
5.99889e-06
-1.24361e-08
6.00025e-06
2.16637e-07
5.99001e-06
1.03548e-07
6.00342e-06
2.19049e-07
6.01458e-06
3.99756e-07
6.01436e-06
1.9687e-07
6.03019e-06
1.92815e-07
6.02595e-06
2.08793e-07
6.00616e-06
3.03467e-08
6.00822e-06
2.82857e-08
6.00389e-06
1.12533e-07
5.98814e-06
8.6567e-08
5.98577e-06
7.55591e-08
5.98961e-06
1.193e-07
5.98843e-06
1.43838e-07
1.43081e-07
5.98769e-06
6.29996e-06
2.69048e-07
6.2693e-06
6.28313e-09
6.29516e-06
1.76057e-07
6.29066e-06
1.76088e-07
6.28366e-06
-5.42873e-09
6.28833e-06
2.11969e-07
6.27769e-06
1.14185e-07
6.29016e-06
2.06582e-07
6.30256e-06
3.87351e-07
6.30092e-06
1.98506e-07
6.31541e-06
1.78333e-07
6.31312e-06
2.11081e-07
6.29255e-06
5.09118e-08
6.29281e-06
2.80326e-08
6.29154e-06
1.13804e-07
6.27651e-06
1.01597e-07
6.27192e-06
8.01431e-08
6.27664e-06
1.14583e-07
6.27705e-06
1.43429e-07
1.43892e-07
6.27624e-06
6.59969e-06
2.44829e-07
6.57058e-06
3.53878e-08
6.59281e-06
1.53831e-07
6.592e-06
1.76904e-07
6.58227e-06
4.29704e-09
6.58921e-06
2.0503e-07
6.57897e-06
1.2442e-07
6.5898e-06
1.95751e-07
6.60328e-06
3.73878e-07
6.60069e-06
2.01091e-07
6.61354e-06
1.65484e-07
6.6133e-06
2.11327e-07
6.59273e-06
7.14765e-08
6.59082e-06
2.99475e-08
6.59226e-06
1.12362e-07
6.57892e-06
1.14935e-07
6.57216e-06
8.69014e-08
6.57696e-06
1.0978e-07
6.57923e-06
1.41164e-07
1.44488e-07
6.57863e-06
6.91352e-06
2.21097e-07
6.8865e-06
6.2412e-08
6.90472e-06
1.35611e-07
6.90737e-06
1.74254e-07
6.89544e-06
1.62252e-08
6.90361e-06
1.96857e-07
6.89398e-06
1.34049e-07
6.90234e-06
1.87396e-07
6.91703e-06
3.59188e-07
6.91407e-06
2.04047e-07
6.92516e-06
1.544e-07
6.92704e-06
2.09441e-07
6.90735e-06
9.11649e-08
6.90308e-06
3.42261e-08
6.90667e-06
1.08765e-07
6.89582e-06
1.25787e-07
6.88733e-06
9.53874e-08
6.89126e-06
1.05853e-07
6.89544e-06
1.36986e-07
1.44465e-07
6.89546e-06
7.24214e-06
1.98094e-07
7.21772e-06
8.68311e-08
7.23177e-06
1.21565e-07
7.23751e-06
1.68514e-07
7.22382e-06
2.9915e-08
7.23234e-06
1.88334e-07
7.22441e-06
1.41976e-07
7.23016e-06
1.81654e-07
7.24553e-06
3.43813e-07
7.24253e-06
2.07044e-07
7.25142e-06
1.45513e-07
7.25527e-06
2.05594e-07
7.23715e-06
1.09283e-07
7.23053e-06
4.0844e-08
7.23548e-06
1.03818e-07
7.22771e-06
1.33554e-07
7.21818e-06
1.04915e-07
7.22044e-06
1.03598e-07
7.22612e-06
1.31301e-07
1.43261e-07
7.22733e-06
7.58626e-06
1.76055e-07
7.56497e-06
1.08126e-07
7.57484e-06
1.11699e-07
7.58325e-06
1.601e-07
7.56839e-06
4.47726e-08
7.57661e-06
1.8012e-07
7.57081e-06
1.47772e-07
7.57452e-06
1.77946e-07
7.58981e-06
3.28519e-07
7.58693e-06
2.09927e-07
7.59352e-06
1.38925e-07
7.59897e-06
2.00136e-07
7.58283e-06
1.25429e-07
7.57406e-06
4.9608e-08
7.57949e-06
9.83927e-08
7.575e-06
1.38043e-07
7.56539e-06
1.14529e-07
7.56557e-06
1.03418e-07
7.57189e-06
1.24981e-07
1.40408e-07
7.57474e-06
7.94665e-06
1.55212e-07
7.92894e-06
1.25838e-07
7.93495e-06
1.05692e-07
7.94534e-06
1.4971e-07
7.93059e-06
5.9526e-08
7.93852e-06
1.72187e-07
7.93525e-06
1.51045e-07
7.93761e-06
1.75581e-07
7.95066e-06
3.15475e-07
7.94769e-06
2.12894e-07
7.95236e-06
1.34255e-07
7.95907e-06
1.93423e-07
7.9452e-06
1.39304e-07
7.93458e-06
6.02214e-08
7.9396e-06
9.3371e-08
7.93838e-06
1.39265e-07
7.92949e-06
1.23425e-07
7.92769e-06
1.05214e-07
7.93366e-06
1.19015e-07
1.35864e-07
7.9382e-06
8.32412e-06
1.35773e-07
8.3103e-06
1.39659e-07
8.31334e-06
1.0265e-07
8.32486e-06
1.38189e-07
8.31178e-06
7.26064e-08
8.31944e-06
1.64528e-07
8.31804e-06
1.52449e-07
8.31666e-06
1.76955e-07
8.32801e-06
3.04124e-07
8.32573e-06
2.15174e-07
8.32881e-06
1.31182e-07
8.33645e-06
1.85777e-07
8.32501e-06
1.50745e-07
8.31301e-06
7.22235e-08
8.3168e-06
8.9579e-08
8.31848e-06
1.37585e-07
8.31109e-06
1.30816e-07
8.3077e-06
1.08606e-07
8.31256e-06
1.14154e-07
1.3007e-07
8.31835e-06
8.71949e-06
1.1794e-07
8.7099e-06
1.49258e-07
8.71037e-06
1.02175e-07
8.72382e-06
1.24738e-07
8.71008e-06
8.63445e-08
8.70869e-06
1.65923e-07
8.70751e-06
1.53625e-07
8.71022e-06
1.74252e-07
8.72328e-06
2.91057e-07
8.72203e-06
2.16428e-07
8.7237e-06
1.29507e-07
8.7319e-06
1.77582e-07
8.7231e-06
1.59548e-07
8.71033e-06
8.49878e-08
8.71223e-06
8.7684e-08
8.7161e-06
1.33711e-07
8.71081e-06
1.36111e-07
8.70644e-06
1.1297e-07
8.70977e-06
1.1083e-07
1.2379e-07
8.71605e-06
9.13368e-06
1.01881e-07
9.1285e-06
1.54433e-07
9.12574e-06
1.0494e-07
9.13689e-06
1.13583e-07
9.12457e-06
9.86706e-08
9.12265e-06
1.67839e-07
9.12271e-06
1.53562e-07
9.12603e-06
1.70939e-07
9.1384e-06
2.78685e-07
9.13747e-06
2.17361e-07
9.13767e-06
1.29298e-07
9.14606e-06
1.69197e-07
9.14002e-06
1.65585e-07
9.12725e-06
9.77643e-08
9.12694e-06
8.7992e-08
9.1321e-06
1.28551e-07
9.1293e-06
1.38912e-07
9.12468e-06
1.17591e-07
9.12641e-06
1.09101e-07
1.17762e-07
9.13243e-06
9.56762e-06
8.77193e-08
9.56654e-06
1.55519e-07
9.56128e-06
1.10191e-07
9.57151e-06
1.03362e-07
9.56249e-06
1.07688e-07
9.55873e-06
1.71598e-07
9.55772e-06
1.54569e-07
9.56156e-06
1.67104e-07
9.57372e-06
2.66524e-07
9.57302e-06
2.18064e-07
9.57177e-06
1.30546e-07
9.57994e-06
1.61023e-07
9.57669e-06
1.68834e-07
9.56461e-06
1.09844e-07
9.56218e-06
9.04213e-08
9.56761e-06
1.23126e-07
9.56731e-06
1.39215e-07
9.56313e-06
1.21768e-07
9.56347e-06
1.08762e-07
1.12541e-07
9.56869e-06
1.00223e-05
7.55258e-08
1.00251e-05
1.5271e-07
1.00184e-05
1.16948e-07
1.00272e-05
9.45877e-08
1.00215e-05
1.13339e-07
1.00164e-05
1.76739e-07
1.00136e-05
1.57334e-07
1.00176e-05
1.6309e-07
1.003e-05
2.54146e-07
1.00298e-05
2.18264e-07
1.0027e-05
1.3331e-07
1.00346e-05
1.53491e-07
1.00338e-05
1.69551e-07
1.00231e-05
1.20536e-07
1.0019e-05
9.46019e-08
1.00239e-05
1.18238e-07
1.00257e-05
1.37394e-07
1.00226e-05
1.24879e-07
1.0022e-05
1.09358e-07
1.08478e-07
1.0026e-05
1.04989e-05
6.53138e-08
1.05054e-05
1.46207e-07
1.04978e-05
1.2454e-07
1.05043e-05
8.80758e-08
1.05024e-05
1.15243e-07
1.04965e-05
1.82622e-07
1.04917e-05
1.62136e-07
1.04952e-05
1.59566e-07
1.05079e-05
2.41418e-07
1.05086e-05
2.17583e-07
1.05046e-05
1.37305e-07
1.0511e-05
1.47078e-07
1.05125e-05
1.68087e-07
1.05036e-05
1.29406e-07
1.04983e-05
9.99066e-08
1.05021e-05
1.14466e-07
1.05054e-05
1.34053e-07
1.05037e-05
1.26595e-07
1.05027e-05
1.10344e-07
1.05625e-07
1.05056e-05
1.09983e-05
5.6987e-08
1.10078e-05
1.36762e-07
1.10005e-05
1.31821e-07
1.1004e-05
8.45761e-08
1.10054e-05
1.13844e-07
1.09998e-05
1.88184e-07
1.09933e-05
1.68723e-07
1.09956e-05
1.57254e-07
1.10085e-05
2.28464e-07
1.10104e-05
2.15661e-07
1.10057e-05
1.42051e-07
1.10106e-05
1.42176e-07
1.10137e-05
1.65007e-07
1.10069e-05
1.36199e-07
1.10011e-05
1.05683e-07
1.10035e-05
1.12031e-07
1.10078e-05
1.29831e-07
1.10075e-05
1.26846e-07
1.10066e-05
1.11229e-07
1.03711e-07
1.10085e-05
1.1522e-05
5.03785e-08
1.15333e-05
1.25397e-07
1.15275e-05
1.37615e-07
1.15273e-05
8.48006e-08
1.15307e-05
1.10421e-07
1.15271e-05
1.91866e-07
1.15195e-05
1.76307e-07
1.15201e-05
1.56631e-07
1.15328e-05
2.15794e-07
1.15362e-05
2.12234e-07
1.15312e-05
1.4701e-07
1.15345e-05
1.38939e-07
1.15386e-05
1.60886e-07
1.15339e-05
1.40867e-07
1.15283e-05
1.11318e-07
1.15294e-05
1.10879e-07
1.1534e-05
1.25321e-07
1.15351e-05
1.25749e-07
1.15345e-05
1.11731e-07
1.02336e-07
1.15359e-05
1.20709e-05
4.52613e-08
1.20831e-05
1.13216e-07
1.20794e-05
1.41319e-07
1.20751e-05
8.9118e-08
1.2079e-05
1.06476e-07
1.20789e-05
1.9201e-07
1.20714e-05
1.83794e-07
1.20702e-05
1.5783e-07
1.2082e-05
2.04051e-07
1.20868e-05
2.07376e-07
1.20823e-05
1.51532e-07
1.2084e-05
1.37281e-07
1.20885e-05
1.56317e-07
1.20858e-05
1.4357e-07
1.20808e-05
1.16327e-07
1.20809e-05
1.10751e-07
1.20852e-05
1.21027e-07
1.20875e-05
1.23499e-07
1.20875e-05
1.11704e-07
1.01166e-07
1.20887e-05
1.26465e-05
4.13677e-08
1.2658e-05
1.01712e-07
1.2656e-05
1.43287e-07
1.26487e-05
9.63914e-08
1.26521e-05
1.03093e-07
1.26563e-05
1.87848e-07
1.26502e-05
1.89932e-07
1.26473e-05
1.6073e-07
1.26574e-05
1.93918e-07
1.26634e-05
2.01337e-07
1.26599e-05
1.55076e-07
1.26603e-05
1.36911e-07
1.26648e-05
1.5179e-07
1.26638e-05
1.44543e-07
1.26597e-05
1.20423e-07
1.26592e-05
1.11285e-07
1.2663e-05
1.17244e-07
1.2666e-05
1.20412e-07
1.26667e-05
1.11018e-07
1.00032e-07
1.26679e-05
1.32499e-05
3.84149e-08
1.32592e-05
9.2365e-08
1.32594e-05
1.43126e-07
1.32507e-05
1.05052e-07
1.32525e-05
1.01311e-07
1.32603e-05
1.80073e-07
1.32567e-05
1.93559e-07
1.32525e-05
1.64912e-07
1.32606e-05
1.8584e-07
1.32673e-05
1.94553e-07
1.32651e-05
1.5736e-07
1.32646e-05
1.37334e-07
1.32688e-05
1.47674e-07
1.32692e-05
1.44115e-07
1.32662e-05
1.23432e-07
1.32653e-05
1.12141e-07
1.32685e-05
1.14092e-07
1.3272e-05
1.16854e-07
1.32734e-05
1.09601e-07
9.88352e-08
1.32746e-05
1.38825e-05
3.60767e-08
1.38906e-05
8.42268e-08
1.38926e-05
1.41168e-07
1.38834e-05
1.14234e-07
1.38824e-05
1.02322e-07
1.38922e-05
1.7032e-07
1.38918e-05
1.93933e-07
1.38871e-05
1.69548e-07
1.3893e-05
1.79946e-07
1.39e-05
1.87622e-07
1.3899e-05
1.58311e-07
1.38983e-05
1.38058e-07
1.39019e-05
1.44111e-07
1.39033e-05
1.42682e-07
1.39014e-05
1.25294e-07
1.39006e-05
1.12991e-07
1.39031e-05
1.11548e-07
1.39069e-05
1.13126e-07
1.39089e-05
1.0753e-07
9.74502e-08
1.39103e-05
1.45457e-05
3.40852e-08
1.45516e-05
7.82338e-08
1.45559e-05
1.36967e-07
1.45476e-05
1.22504e-07
1.45437e-05
1.06164e-07
1.45535e-05
1.60563e-07
1.45565e-05
1.90951e-07
1.45525e-05
1.73539e-07
1.45563e-05
1.76105e-07
1.45628e-05
1.81154e-07
1.45631e-05
1.58e-07
1.45625e-05
1.3871e-07
1.45655e-05
1.41022e-07
1.45676e-05
1.40607e-07
1.45668e-05
1.26079e-07
1.45663e-05
1.13552e-07
1.45683e-05
1.09492e-07
1.4572e-05
1.09468e-07
1.45746e-05
1.04945e-07
9.57879e-08
1.45762e-05
1.52407e-05
3.22278e-08
1.52452e-05
7.38146e-08
1.52506e-05
1.31485e-07
1.52441e-05
1.29081e-07
1.52381e-05
1.1209e-07
1.52462e-05
1.52515e-07
1.5252e-05
1.85144e-07
1.52497e-05
1.75845e-07
1.52519e-05
1.73906e-07
1.52575e-05
1.75556e-07
1.52588e-05
1.56714e-07
1.52585e-05
1.39021e-07
1.52612e-05
1.38289e-07
1.52637e-05
1.38069e-07
1.52638e-05
1.25989e-07
1.52637e-05
1.13654e-07
1.52655e-05
1.07738e-07
1.52689e-05
1.0603e-07
1.52719e-05
1.0198e-07
9.38344e-08
1.52738e-05
1.59691e-05
3.04099e-08
1.59722e-05
7.07695e-08
1.59782e-05
1.2543e-07
1.59739e-05
1.33462e-07
1.59669e-05
1.19029e-07
1.59724e-05
1.47035e-07
1.59799e-05
1.77651e-07
1.59798e-05
1.75935e-07
1.59812e-05
1.72557e-07
1.59857e-05
1.70996e-07
1.59876e-05
1.54883e-07
1.59878e-05
1.38803e-07
1.59902e-05
1.3582e-07
1.59931e-05
1.35165e-07
1.5994e-05
1.25141e-07
1.59943e-05
1.13303e-07
1.5996e-05
1.06062e-07
1.59992e-05
1.0288e-07
1.60024e-05
9.87909e-08
9.15957e-08
1.60046e-05
1.67324e-05
2.86337e-08
1.6734e-05
6.91508e-08
1.67401e-05
1.1933e-07
1.67382e-05
1.35392e-07
1.67314e-05
1.25841e-07
1.67343e-05
1.44118e-07
1.67421e-05
1.69843e-07
1.67442e-05
1.73834e-07
1.67456e-05
1.71166e-07
1.67492e-05
1.67398e-07
1.67512e-05
1.52872e-07
1.67519e-05
1.38054e-07
1.67543e-05
1.33469e-07
1.67574e-05
1.32053e-07
1.6759e-05
1.23566e-07
1.67598e-05
1.12504e-07
1.67615e-05
1.04372e-07
1.67644e-05
9.99298e-08
1.67677e-05
9.5539e-08
8.9071e-08
1.67702e-05
1.75321e-05
2.69368e-08
1.75332e-05
6.8033e-08
1.75384e-05
1.1411e-07
1.75384e-05
1.35339e-07
1.75327e-05
1.316e-07
1.75336e-05
1.43211e-07
1.75405e-05
1.62907e-07
1.75444e-05
1.69937e-07
1.75465e-05
1.69088e-07
1.75494e-05
1.64471e-07
1.75515e-05
1.5084e-07
1.75526e-05
1.36956e-07
1.7555e-05
1.31059e-07
1.75582e-05
1.28871e-07
1.75603e-05
1.21382e-07
1.75617e-05
1.11186e-07
1.75634e-05
1.02627e-07
1.75662e-05
9.70822e-08
1.75695e-05
9.23197e-08
8.63051e-08
1.75722e-05
1.83699e-05
2.53915e-08
1.83708e-05
6.71509e-08
1.8375e-05
1.09932e-07
1.83764e-05
1.33848e-07
1.83723e-05
1.35735e-07
1.8372e-05
1.43534e-07
1.83774e-05
1.57447e-07
1.83824e-05
1.64989e-07
1.83854e-05
1.66073e-07
1.83882e-05
1.61718e-07
1.83901e-05
1.48856e-07
1.83915e-05
1.3564e-07
1.8394e-05
1.28564e-07
1.83972e-05
1.25599e-07
1.83998e-05
1.18761e-07
1.84017e-05
1.0933e-07
1.84036e-05
1.00695e-07
1.84064e-05
9.43527e-08
1.84096e-05
8.91253e-08
8.33921e-08
1.84125e-05
1.92477e-05
2.40545e-08
1.92487e-05
6.62104e-08
1.92518e-05
1.06786e-07
1.92541e-05
1.31559e-07
1.92517e-05
1.38099e-07
1.9251e-05
1.44322e-07
1.9255e-05
1.53413e-07
1.92601e-05
1.5986e-07
1.9264e-05
1.62178e-07
1.9267e-05
1.58691e-07
1.9269e-05
1.46917e-07
1.92705e-05
1.34087e-07
1.9273e-05
1.26134e-07
1.92764e-05