/*--------------------------------*- C++ -*----------------------------------*\
| =========                 |                                                 |
| \\      /  F ield         | OpenFOAM: The Open Source CFD Toolbox           |
|  \\    /   O peration     | Version:  2506                                  |
|   \\  /    A nd           | Website:  www.openfoam.com                      |
|    \\/     M anipulation  |                                                 |
\*---------------------------------------------------------------------------*/
FoamFile
{
    version     2.0;
    format      ascii;
    arch        "LSB;label=32;scalar=64";
    class       surfaceScalarField;
    location    "5.35";
    object      phi;
}
// * * * * * * * * * * * * * * * * * * * * * * * * * * * * * * * * * * * * * //

dimensions      [0 3 -1 0 0 0 0];

oriented        oriented;

internalField   nonuniform List<scalar> 
19000
(
1.18406e-06
1.47581e-06
1.17239e-06
-3.07142e-07
1.19868e-06
3.8027e-07
1.07183e-06
-1.99012e-06
1.17825e-06
1.40856e-06
1.16189e-06
1.11238e-06
1.07852e-06
-3.9158e-07
1.15264e-06
6.87639e-07
1.13653e-06
5.23448e-07
1.10754e-06
-2.42149e-07
1.15864e-06
3.73712e-07
1.1217e-06
-8.3402e-07
1.16856e-06
4.42904e-07
1.11388e-06
8.50511e-09
1.15454e-06
4.94213e-07
1.12359e-06
4.55842e-07
1.14359e-06
3.62734e-07
1.14468e-06
5.65781e-07
1.13794e-06
3.76696e-07
4.69589e-07
1.13287e-06
1.23573e-06
1.46434e-06
1.22638e-06
-2.97791e-07
1.25105e-06
3.55601e-07
1.11947e-06
-1.85854e-06
1.23033e-06
1.2977e-06
1.22352e-06
1.11918e-06
1.13551e-06
-3.03565e-07
1.2127e-06
6.10445e-07
1.19391e-06
5.42236e-07
1.16594e-06
-2.14177e-07
1.2119e-06
3.27751e-07
1.17365e-06
-7.95773e-07
1.21649e-06
4.00065e-07
1.17195e-06
5.30514e-08
1.19498e-06
4.71181e-07
1.19815e-06
4.52676e-07
1.18154e-06
3.79338e-07
1.22704e-06
5.20283e-07
1.17545e-06
4.28285e-07
4.29075e-07
1.21597e-06
1.29142e-06
1.4557e-06
1.28169e-06
-2.88063e-07
1.30658e-06
3.30713e-07
1.17415e-06
-1.72612e-06
1.27767e-06
1.19418e-06
1.29174e-06
1.10511e-06
1.20021e-06
-2.12037e-07
1.27141e-06
5.39246e-07
1.25448e-06
5.5917e-07
1.22949e-06
-1.89188e-07
1.26832e-06
2.8892e-07
1.23315e-06
-7.60599e-07
1.26693e-06
3.66277e-07
1.2395e-06
8.04839e-08
1.24188e-06
4.68798e-07
1.26691e-06
4.27648e-07
1.23563e-06
4.10621e-07
1.27614e-06
4.79774e-07
1.24548e-06
4.5894e-07
4.32178e-07
1.24238e-06
1.35039e-06
1.44942e-06
1.34085e-06
-2.78531e-07
1.36499e-06
3.06579e-07
1.23801e-06
-1.59914e-06
1.32375e-06
1.10844e-06
1.3637e-06
1.06515e-06
1.26945e-06
-1.17781e-07
1.32403e-06
4.84667e-07
1.31482e-06
5.68377e-07
1.29651e-06
-1.70873e-07
1.32598e-06
2.59449e-07
1.29869e-06
-7.33308e-07
1.32331e-06
3.41656e-07
1.31448e-06
8.93156e-08
1.30322e-06
4.80054e-07
1.33067e-06
4.00202e-07
1.30759e-06
4.337e-07
1.32419e-06
4.63172e-07
1.31839e-06
4.64736e-07
4.48057e-07
1.30251e-06
1.41345e-06
1.44433e-06
1.40456e-06
-2.69646e-07
1.42621e-06
2.84926e-07
1.31154e-06
-1.48446e-06
1.37159e-06
1.0484e-06
1.43378e-06
1.00296e-06
1.34237e-06
-2.63722e-08
1.37229e-06
4.54751e-07
1.37535e-06
5.65314e-07
1.36543e-06
-1.60958e-07
1.38588e-06
2.39005e-07
1.3676e-06
-7.15035e-07
1.38651e-06
3.22749e-07
1.38948e-06
8.63484e-08
1.37816e-06
4.91374e-07
1.39647e-06
3.81891e-07
1.3877e-06
4.42472e-07
1.38895e-06
4.61914e-07
1.39068e-06
4.63015e-07
4.60962e-07
1.37777e-06
1.48117e-06
1.43883e-06
1.47298e-06
-2.6146e-07
1.49009e-06
2.67819e-07
1.39268e-06
-1.38705e-06
1.42537e-06
1.01571e-06
1.49935e-06
9.28979e-07
1.41926e-06
5.37119e-08
1.42414e-06
4.49871e-07
1.43881e-06
5.50653e-07
1.43628e-06
-1.58435e-07
1.45065e-06
2.24639e-07
1.43908e-06
-7.03465e-07
1.45438e-06
3.07449e-07
1.46231e-06
7.84129e-08
1.45774e-06
4.95951e-07
1.46607e-06
3.73561e-07
1.46595e-06
4.42588e-07
1.46172e-06
4.66145e-07
1.46362e-06
4.61116e-07
4.71335e-07
1.45325e-06
1.55371e-06
1.43134e-06
1.54596e-06
-2.5371e-07
1.55676e-06
2.5702e-07
1.47805e-06
-1.30834e-06
1.48867e-06
1.00508e-06
1.56285e-06
8.54801e-07
1.50022e-06
1.16343e-07
1.48705e-06
4.63043e-07
1.5084e-06
5.29301e-07
1.5103e-06
-1.60338e-07
1.52232e-06
2.12619e-07
1.51354e-06
-6.94682e-07
1.52517e-06
2.95823e-07
1.53418e-06
6.94028e-08
1.53619e-06
4.93937e-07
1.53752e-06
3.72234e-07
1.54031e-06
4.39799e-07
1.53374e-06
4.72712e-07
1.53519e-06
4.5966e-07
4.80837e-07
1.52569e-06
1.63081e-06
1.42065e-06
1.62318e-06
-2.46077e-07
1.6267e-06
2.53504e-07
1.56491e-06
-1.24656e-06
1.56271e-06
1.00729e-06
1.6288e-06
7.88705e-07
1.58425e-06
1.60899e-07
1.56303e-06
4.84261e-07
1.58597e-06
5.06358e-07
1.58904e-06
-1.63404e-07
1.6008e-06
2.00853e-07
1.59121e-06
-6.85089e-07
1.59899e-06
2.88047e-07
1.60703e-06
6.1356e-08
1.61341e-06
4.87563e-07
1.61052e-06
3.75119e-07
1.61369e-06
4.36629e-07
1.60493e-06
4.81472e-07
1.60634e-06
4.58253e-07
4.89287e-07
1.59789e-06
1.71198e-06
1.40625e-06
1.70432e-06
-2.38416e-07
1.70051e-06
2.57318e-07
1.65216e-06
-1.19821e-06
1.64635e-06
1.0131e-06
1.70057e-06
7.34481e-07
1.67033e-06
1.91145e-07
1.6495e-06
5.05091e-07
1.6713e-06
4.84553e-07
1.6734e-06
-1.65498e-07
1.68472e-06
1.89528e-07
1.67207e-06
-6.72441e-07
1.67681e-06
2.83315e-07
1.68249e-06
5.56677e-08
1.69168e-06
4.78372e-07
1.68643e-06
3.80379e-07
1.6899e-06
4.33154e-07
1.67943e-06
4.91937e-07
1.68116e-06
4.5653e-07
4.95713e-07
1.67473e-06
1.79675e-06
1.38822e-06
1.78912e-06
-2.30791e-07
1.77874e-06
2.677e-07
1.74025e-06
-1.15972e-06
1.73757e-06
1.01578e-06
1.77948e-06
6.92569e-07
1.75847e-06
2.12154e-07
1.74275e-06
5.20813e-07
1.76279e-06
4.64509e-07
1.76314e-06
-1.65842e-07
1.77278e-06
1.79887e-07
1.75624e-06
-6.55905e-07
1.75923e-06
2.80327e-07
1.7615e-06
5.34016e-08
1.77297e-06
4.66896e-07
1.76639e-06
3.86957e-07
1.77118e-06
4.28367e-07
1.76039e-06
5.02733e-07
1.76281e-06
4.54102e-07
4.99073e-07
1.75945e-06
1.88481e-06
1.36716e-06
1.8774e-06
-2.23385e-07
1.86182e-06
2.83289e-07
1.8304e-06
-1.12831e-06
1.8346e-06
1.01158e-06
1.86545e-06
6.61723e-07
1.84955e-06
2.28046e-07
1.84027e-06
5.30093e-07
1.85868e-06
4.46103e-07
1.85711e-06
-1.64271e-07
1.86418e-06
1.72811e-07
1.84391e-06
-6.35633e-07
1.84627e-06
2.77969e-07
1.84445e-06
5.52245e-08
1.85813e-06
4.53218e-07
1.85074e-06
3.94346e-07
1.85777e-06
4.2133e-07
1.84824e-06
5.1227e-07
1.85149e-06
4.5085e-07
4.9853e-07
1.85203e-06
1.97608e-06
1.34392e-06
1.96909e-06
-2.16392e-07
1.95006e-06
3.02321e-07
1.92371e-06
-1.10196e-06
1.93608e-06
9.99213e-07
1.95771e-06
6.40094e-07
1.94447e-06
2.41284e-07
1.94091e-06
5.33658e-07
1.95771e-06
4.29299e-07
1.954e-06
-1.60554e-07
1.95846e-06
1.68345e-07
1.93511e-06
-6.12281e-07
1.93766e-06
2.7542e-07
1.93156e-06
6.13283e-08
1.9473e-06
4.37477e-07
1.93931e-06
4.02329e-07
1.94883e-06
4.11815e-07
1.94181e-06
5.19288e-07
1.94556e-06
4.47101e-07
4.93596e-07
1.95049e-06
2.07067e-06
1.31944e-06
2.06423e-06
-2.09957e-07
2.04371e-06
3.22849e-07
2.02078e-06
-1.07904e-06
2.04081e-06
9.79182e-07
2.05522e-06
6.25686e-07
2.04359e-06
2.52912e-07
2.04415e-06
5.33103e-07
2.05924e-06
4.14208e-07
2.05301e-06
-1.54324e-07
2.05535e-06
1.65999e-07
2.02969e-06
-5.86619e-07
2.03315e-06
2.71958e-07
2.02309e-06
7.13942e-08
2.0406e-06
4.19967e-07
2.03222e-06
4.10707e-07
2.04372e-06
4.00313e-07
2.04006e-06
5.22952e-07
2.04368e-06
4.43474e-07
4.84214e-07
2.05307e-06
2.16884e-06
1.29459e-06
2.16303e-06
-2.04146e-07
2.1429e-06
3.4298e-07
2.12175e-06
-1.05789e-06
2.14773e-06
9.53206e-07
2.15688e-06
6.16533e-07
2.14675e-06
2.63037e-07
2.14974e-06
5.30118e-07
2.16311e-06
4.00839e-07
2.15421e-06
-1.4542e-07
2.15497e-06
1.65233e-07
2.1276e-06
-5.59249e-07
2.13271e-06
2.66847e-07
2.11945e-06
8.46525e-08
2.13847e-06
4.0095e-07
2.13009e-06
4.19088e-07
2.14271e-06
3.87691e-07
2.14294e-06
5.22722e-07
2.14585e-06
4.40566e-07
4.70852e-07
2.15921e-06
2.27105e-06
1.27003e-06
2.26581e-06
-1.98901e-07
2.24767e-06
3.61117e-07
2.2266e-06
-1.03682e-06
2.25622e-06
9.23583e-07
2.26189e-06
6.1087e-07
2.25365e-06
2.7127e-07
2.25769e-06
5.26078e-07
2.2696e-06
3.88936e-07
2.25833e-06
-1.34149e-07
2.25789e-06
1.6567e-07
2.22914e-06
-5.305e-07
2.23653e-06
2.59459e-07
2.22109e-06
1.00093e-07
2.2415e-06
3.80533e-07
2.23375e-06
4.26841e-07
2.24654e-06
3.74905e-07
2.25101e-06
5.18247e-07
2.25283e-06
4.3875e-07
4.54591e-07
2.26909e-06
2.37783e-06
1.24608e-06
2.37295e-06
-1.94015e-07
2.35793e-06
3.76132e-07
2.33543e-06
-1.01432e-06
2.36647e-06
8.92551e-07
2.37003e-06
6.07303e-07
2.36421e-06
2.77098e-07
2.36838e-06
5.21904e-07
2.37929e-06
3.78021e-07
2.36635e-06
-1.21206e-07
2.36499e-06
1.67027e-07
2.33497e-06
-5.00477e-07
2.34492e-06
2.49508e-07
2.32826e-06
1.16759e-07
2.34997e-06
3.58819e-07
2.34357e-06
4.33242e-07
2.35554e-06
3.62934e-07
2.36435e-06
5.09434e-07
2.36495e-06
4.3815e-07
4.36986e-07
2.38256e-06
2.48974e-06
1.22273e-06
2.48487e-06
-1.8914e-07
2.47359e-06
3.87405e-07
2.44855e-06
-9.89281e-07
2.47933e-06
8.61773e-07
2.48176e-06
6.04871e-07
2.47871e-06
2.80143e-07
2.48247e-06
5.18143e-07
2.49294e-06
3.67554e-07
2.47913e-06
-1.07391e-07
2.47716e-06
1.68997e-07
2.4459e-06
-4.69219e-07
2.45823e-06
2.37177e-07
2.44101e-06
1.33974e-07
2.46365e-06
3.3618e-07
2.45921e-06
4.37685e-07
2.46938e-06
3.52769e-07
2.4822e-06
4.96606e-07
2.48172e-06
4.38636e-07
4.19706e-07
2.499e-06
2.60725e-06
1.19978e-06
2.60197e-06
-1.83858e-07
2.59462e-06
3.94756e-07
2.56639e-06
-9.6106e-07
2.59605e-06
8.32118e-07
2.5979e-06
6.03019e-07
2.59777e-06
2.80275e-07
2.60079e-06
5.15127e-07
2.61124e-06
3.57105e-07
2.59721e-06
-9.33657e-08
2.59497e-06
1.71232e-07
2.56259e-06
-4.36831e-07
2.57669e-06
2.23073e-07
2.5593e-06
1.51365e-07
2.58209e-06
3.13387e-07
2.57999e-06
4.39785e-07
2.58751e-06
3.45256e-07
2.60357e-06
4.80544e-07
2.60242e-06
4.39784e-07
4.04174e-07
2.61795e-06
2.73072e-06
1.17688e-06
2.72462e-06
-1.7776e-07
2.72108e-06
3.98295e-07
2.68946e-06
-9.29432e-07
2.71783e-06
8.03749e-07
2.71935e-06
6.01492e-07
2.72204e-06
2.77583e-07
2.72409e-06
5.13083e-07
2.73473e-06
3.46458e-07
2.72095e-06
-7.95785e-08
2.71874e-06
1.73437e-07
2.68545e-06
-4.03539e-07
2.70052e-06
2.07999e-07
2.68313e-06
1.68754e-07
2.70506e-06
2.91458e-07
2.70548e-06
4.39372e-07
2.70984e-06
3.40893e-07
2.72805e-06
4.62338e-07
2.72696e-06
4.40867e-07
3.91301e-07
2.73983e-06
2.86045e-06
1.1537e-06
2.85319e-06
-1.70505e-07
2.8532e-06
3.98294e-07
2.81818e-06
-8.94417e-07
2.84557e-06
7.76363e-07
2.84681e-06
6.0025e-07
2.8521e-06
2.72297e-07
2.85304e-06
5.12142e-07
2.86388e-06
3.35619e-07
2.85061e-06
-6.63167e-08
2.84858e-06
1.75472e-07
2.81472e-06
-3.69684e-07
2.82999e-06
1.92732e-07
2.81272e-06
1.86024e-07
2.83283e-06
2.71352e-07
2.83577e-06
4.36431e-07
2.83694e-06
3.39716e-07
2.85615e-06
4.43132e-07
2.85598e-06
4.41034e-07
3.81451e-07
2.86583e-06
2.99668e-06
1.12992e-06
2.98801e-06
-1.61837e-07
2.99123e-06
3.95078e-07
2.95298e-06
-8.56168e-07
2.97991e-06
7.49432e-07
2.98076e-06
5.99401e-07
2.98833e-06
2.64722e-07
2.98819e-06
5.12283e-07
2.99906e-06
3.24753e-07
2.98651e-06
-5.37737e-08
2.9846e-06
1.77388e-07
2.95057e-06
-3.35655e-07
2.96546e-06
1.77845e-07
2.94846e-06
2.03025e-07
2.96604e-06
2.53762e-07
2.97144e-06
4.3104e-07
2.96981e-06
3.41342e-07
2.98899e-06
4.23951e-07
2.99055e-06
4.39475e-07
3.74533e-07
2.99747e-06
3.13965e-06
1.10528e-06
3.12939e-06
-1.51573e-07
3.1355e-06
3.88962e-07
3.09422e-06
-8.14883e-07
3.12128e-06
7.22366e-07
3.12155e-06
5.99137e-07
3.13107e-06
2.55202e-07
3.13003e-06
5.13324e-07
3.14065e-06
3.14126e-07
3.12898e-06
-4.21004e-08
3.12698e-06
1.79384e-07
3.09314e-06
-3.01811e-07
3.10734e-06
1.63648e-07
3.09082e-06
2.19545e-07
3.1055e-06
2.3908e-07
3.11323e-06
4.23312e-07
3.10947e-06
3.45101e-07
3.1278e-06
4.05618e-07
3.13169e-06
4.35585e-07
3.70141e-07
3.13608e-06
3.28963e-06
1.07955e-06
3.27764e-06
-1.3958e-07
3.28639e-06
3.80214e-07
3.24227e-06
-7.70769e-07
3.27e-06
6.9464e-07
3.26949e-06
5.99648e-07
3.28058e-06
2.44106e-07
3.27896e-06
5.14953e-07
3.28902e-06
3.04065e-07
3.27836e-06
-3.14472e-08
3.27602e-06
1.81729e-07
3.24263e-06
-2.68423e-07
3.25604e-06
1.50234e-07
3.24027e-06
2.35321e-07
3.25187e-06
2.27476e-07
3.26183e-06
4.13351e-07
3.25672e-06
3.50215e-07
3.27354e-06
3.88793e-07
3.28016e-06
4.28964e-07
3.67696e-07
3.28261e-06
3.4469e-06
1.05259e-06
3.43307e-06
-1.25754e-07
3.44426e-06
3.69031e-07
3.3975e-06
-7.24017e-07
3.42627e-06
6.65874e-07
3.42487e-06
6.01051e-07
3.43716e-06
2.31815e-07
3.43533e-06
5.1678e-07
3.44445e-06
2.94944e-07
3.43501e-06
-2.20039e-08
3.43206e-06
1.84675e-07
3.39926e-06
-2.35617e-07
3.41195e-06
1.37539e-07
3.39719e-06
2.50088e-07
3.40566e-06
2.19002e-07
3.41775e-06
4.01257e-07
3.41205e-06
3.55916e-07
3.42687e-06
3.73974e-07
3.43633e-06
4.19502e-07
3.66416e-07
3.43761e-06
3.61175e-06
1.02425e-06
3.59601e-06
-1.1001e-07
3.60949e-06
3.55545e-07
3.56028e-06
-6.74804e-07
3.59028e-06
6.35872e-07
3.58799e-06
6.03339e-07
3.60108e-06
2.18726e-07
3.59949e-06
5.18374e-07
3.60729e-06
2.87139e-07
3.59924e-06
-1.39491e-08
3.59554e-06
1.88367e-07
3.5633e-06
-2.03368e-07
3.57542e-06
1.25419e-07
3.5619e-06
2.63603e-07
3.56724e-06
2.13661e-07
3.58133e-06
3.87169e-07
3.57576e-06
3.61483e-07
3.58817e-06
3.61565e-07
3.60035e-06
4.07324e-07
3.654e-07
3.60137e-06
3.7845e-06
9.94448e-07
3.76678e-06
-9.22817e-08
3.78247e-06
3.39846e-07
3.73098e-06
-6.23314e-07
3.76223e-06
6.04627e-07
3.75918e-06
6.06384e-07
3.77265e-06
2.05255e-07
3.77177e-06
5.1926e-07
3.77786e-06
2.81047e-07
3.77135e-06
-7.43696e-09
3.76692e-06
1.92794e-07
3.73506e-06
-1.71505e-07
3.74675e-06
1.13725e-07
3.73474e-06
2.75613e-07
3.73694e-06
2.1146e-07
3.75282e-06
3.71289e-07
3.74804e-06
3.66265e-07
3.75778e-06
3.51825e-07
3.77227e-06
3.92837e-07
3.63693e-07
3.77397e-06
3.9655e-06
9.63133e-07
3.94575e-06
-7.2528e-08
3.96358e-06
3.22016e-07
3.91003e-06
-5.69764e-07
3.94237e-06
5.72291e-07
3.9388e-06
6.0995e-07
3.95221e-06
1.91842e-07
3.95255e-06
5.18927e-07
3.95653e-06
2.77065e-07
3.95164e-06
-2.55018e-09
3.94667e-06
1.97768e-07
3.91491e-06
-1.39751e-07
3.92627e-06
1.02371e-07
3.91606e-06
2.8582e-07
3.91512e-06
2.12405e-07
3.93243e-06
3.53976e-07
3.9291e-06
3.69596e-07
3.93611e-06
3.44815e-07
3.95208e-06
3.76862e-07
3.60282e-07
3.9555e-06
4.15511e-06
9.30273e-07
4.13332e-06
-5.07429e-08
4.15318e-06
3.02158e-07
4.09785e-06
-5.14434e-07
4.131e-06
5.39146e-07
4.12725e-06
6.13697e-07
4.14012e-06
1.78974e-07
4.14222e-06
5.16829e-07
4.14376e-06
2.75521e-07
4.14042e-06
7.93094e-10
4.13525e-06
2.02937e-07
4.10331e-06
-1.07809e-07
4.11426e-06
9.14154e-08
4.10624e-06
2.93844e-07
4.10219e-06
2.16456e-07
4.12034e-06
3.3582e-07
4.11919e-06
3.70749e-07
4.12357e-06
3.40435e-07
4.13997e-06
3.60459e-07
3.54344e-07
4.14591e-06
4.35371e-06
8.9587e-07
4.32993e-06
-2.69626e-08
4.35167e-06
2.80418e-07
4.29491e-06
-4.57674e-07
4.32847e-06
5.05584e-07
4.32497e-06
6.17191e-07
4.33675e-06
1.67199e-07
4.34117e-06
5.1241e-07
4.34006e-06
2.76631e-07
4.33796e-06
2.88824e-09
4.33312e-06
2.07776e-07
4.30072e-06
-7.54072e-08
4.31104e-06
8.10942e-08
4.30565e-06
2.99232e-07
4.2986e-06
2.23512e-07
4.31681e-06
3.17611e-07
4.3185e-06
3.69059e-07
4.3207e-06
3.38232e-07
4.33624e-06
3.44917e-07
3.45395e-07
4.34519e-06
4.5617e-06
8.59947e-07
4.536e-06
-1.26703e-09
4.55943e-06
2.5699e-07
4.50166e-06
-3.99907e-07
4.53517e-06
4.7208e-07
4.53244e-06
6.1992e-07
4.54251e-06
1.57131e-07
4.54976e-06
5.05159e-07
4.54597e-06
2.80421e-07
4.54463e-06
4.22387e-09
4.54069e-06
2.11716e-07
4.50771e-06
-4.24231e-08
4.51696e-06
7.18424e-08
4.51462e-06
3.01565e-07
4.50488e-06
2.33257e-07
4.52214e-06
3.00356e-07
4.52716e-06
3.64033e-07
4.52794e-06
3.37452e-07
4.54152e-06
3.31335e-07
3.33621e-07
4.5533e-06
4.77951e-06
8.22555e-07
4.75202e-06
2.622e-08
4.77689e-06
2.32118e-07
4.71862e-06
-3.41635e-07
4.7515e-06
4.39199e-07
4.75013e-06
6.2129e-07
4.75781e-06
1.49453e-07
4.76829e-06
4.94682e-07
4.76205e-06
2.86653e-07
4.76083e-06
5.44687e-09
4.75833e-06
2.14214e-07
4.72484e-06
-8.93483e-09
4.73246e-06
6.42254e-08
4.73342e-06
3.00608e-07
4.72162e-06
2.45054e-07
4.73685e-06
2.85122e-07
4.74532e-06
3.55569e-07
4.74571e-06
3.37064e-07
4.75672e-06
3.20323e-07
3.19993e-07
4.77035e-06
5.00759e-06
7.83766e-07
4.97847e-06
5.53352e-08
5.0045e-06
2.06093e-07
4.9463e-06
-2.8344e-07
4.9779e-06
4.07601e-07
4.97856e-06
6.20625e-07
4.98311e-06
1.44904e-07
4.99702e-06
4.8077e-07
4.98889e-06
2.94787e-07
4.98704e-06
7.30155e-09
4.98641e-06
2.14838e-07
4.95273e-06
2.47502e-08
4.95802e-06
5.89349e-08
4.96237e-06
2.96255e-07
4.94941e-06
2.58016e-07
4.96174e-06
2.72788e-07
4.97327e-06
3.44044e-07
4.97437e-06
3.35967e-07
4.98269e-06
3.11999e-07
3.05937e-07
4.99675e-06
5.24641e-06
7.43676e-07
5.21587e-06
8.58738e-08
5.2427e-06
1.79259e-07
5.18525e-06
-2.25993e-07
5.21481e-06
3.78047e-07
5.21824e-06
6.17194e-07
5.21906e-06
1.44084e-07
5.23625e-06
4.63576e-07
5.22701e-06
3.04026e-07
5.22381e-06
1.0509e-08
5.22529e-06
2.13354e-07
5.19195e-06
5.80893e-08
5.19418e-06
5.67101e-08
5.20192e-06
2.88507e-07
5.18881e-06
2.71132e-07
5.19759e-06
2.64011e-07
5.21153e-06
3.30098e-07
5.21412e-06
3.33382e-07
5.22027e-06
3.05842e-07
2.92994e-07
5.23322e-06
5.49646e-06
7.02407e-07
5.46475e-06
1.17587e-07
5.49198e-06
1.52021e-07
5.43605e-06
-1.70064e-07
5.46271e-06
3.5139e-07
5.46968e-06
6.10229e-07
5.46642e-06
1.47336e-07
5.48631e-06
4.43687e-07
5.47694e-06
3.13399e-07
5.47176e-06
1.56932e-08
5.47535e-06
2.09761e-07
5.44305e-06
9.03936e-08
5.44168e-06
5.8072e-08
5.45252e-06
2.7767e-07
5.44027e-06
2.83382e-07
5.44532e-06
2.58958e-07
5.46072e-06
3.14704e-07
5.46518e-06
3.2892e-07
5.46999e-06
3.01026e-07
2.81982e-07
5.48101e-06
5.75826e-06
6.60102e-07
5.72567e-06
1.50179e-07
5.75283e-06
1.2486e-07
5.69931e-06
-1.16546e-07
5.72211e-06
3.28594e-07
5.73341e-06
5.98933e-07
5.72606e-06
1.54683e-07
5.74762e-06
4.22121e-07
5.73915e-06
3.21875e-07
5.7316e-06
2.32405e-08
5.73702e-06
2.04343e-07
5.7065e-06
1.2091e-07
5.7014e-06
6.3178e-08
5.71453e-06
2.64533e-07
5.70424e-06
2.93675e-07
5.70576e-06
2.57443e-07
5.72145e-06
2.9901e-07
5.72797e-06
3.22405e-07
5.73223e-06
2.96766e-07
2.7299e-07
5.74122e-06
6.03236e-06
6.16939e-07
5.99924e-06
1.83299e-07
6.02576e-06
9.8333e-08
5.97565e-06
-6.6433e-08
5.99355e-06
3.10691e-07
6.00978e-06
5.82702e-07
5.9988e-06
1.65667e-07
6.02079e-06
4.00135e-07
6.01407e-06
3.28592e-07
6.0041e-06
3.32119e-08
6.01079e-06
1.97646e-07
5.98282e-06
1.48882e-07
5.97413e-06
7.18672e-08
5.98851e-06
2.50151e-07
5.98113e-06
3.01064e-07
5.97953e-06
2.59037e-07
5.99445e-06
2.84091e-07
6.00305e-06
3.13808e-07
6.00728e-06
2.92533e-07
2.65687e-07
6.01458e-06
6.3193e-06
5.73127e-07
6.28607e-06
2.16529e-07
6.3113e-06
7.30989e-08
6.26573e-06
-2.08576e-08
6.27779e-06
2.98629e-07
6.2989e-06
5.61597e-07
6.28542e-06
1.79139e-07
6.30647e-06
3.79086e-07
6.30214e-06
3.32927e-07
6.28999e-06
4.53547e-08
6.2973e-06
1.90336e-07
6.27249e-06
1.737e-07
6.26056e-06
8.37892e-08
6.27523e-06
2.35488e-07
6.27129e-06
3.05003e-07
6.26725e-06
2.63075e-07
6.2804e-06
2.7094e-07
6.29109e-06
3.0312e-07
6.29553e-06
2.88097e-07
2.59583e-07
6.30163e-06
6.61969e-06
5.28911e-07
6.58682e-06
2.49393e-07
6.61004e-06
4.98841e-08
6.57016e-06
1.90194e-08
6.57589e-06
2.92903e-07
6.60099e-06
5.36491e-07
6.58658e-06
1.93554e-07
6.60549e-06
3.60175e-07
6.60381e-06
3.3461e-07
6.59002e-06
5.91416e-08
6.59727e-06
1.83083e-07
6.57595e-06
1.95018e-07
6.56141e-06
9.83286e-08
6.57542e-06
2.21479e-07
6.57513e-06
3.05292e-07
6.56947e-06
2.68735e-07
6.58012e-06
2.60298e-07
6.59267e-06
2.90565e-07
6.59764e-06
2.83128e-07
2.54362e-07
6.60286e-06
6.93413e-06
4.84572e-07
6.90217e-06
2.81357e-07
6.92258e-06
2.9469e-08
6.88934e-06
5.22639e-08
6.88886e-06
2.93381e-07
6.91657e-06
5.08783e-07
6.9028e-06
2.07317e-07
6.91875e-06
3.44226e-07
6.91953e-06
3.3383e-07
6.90485e-06
7.38234e-08
6.91149e-06
1.76441e-07
6.89374e-06
2.12776e-07
6.87733e-06
1.14732e-07
6.88991e-06
2.08898e-07
6.89305e-06
3.0215e-07
6.88674e-06
2.75053e-07
6.89452e-06
2.52514e-07
6.90826e-06
2.76827e-07
6.91438e-06
2.77007e-07
2.49984e-07
6.91876e-06
7.26328e-06
4.40428e-07
7.2328e-06
3.11836e-07
7.24959e-06
1.26822e-08
7.22359e-06
7.82625e-08
7.2176e-06
2.99369e-07
7.24629e-06
4.80091e-07
7.23462e-06
2.18987e-07
7.24721e-06
3.31642e-07
7.24989e-06
3.31148e-07
7.2351e-06
8.86108e-08
7.24079e-06
1.70751e-07
7.2264e-06
2.27163e-07
7.20891e-06
1.3222e-07
7.21946e-06
1.98349e-07
7.22555e-06
2.96069e-07
7.21959e-06
2.81005e-07
7.22455e-06
2.47561e-07
7.23847e-06
2.629e-07
7.24625e-06
2.69228e-07
2.46116e-07
7.25012e-06
7.60782e-06
3.96833e-07
7.57944e-06
3.40221e-07
7.59181e-06
3.0913e-10
7.57328e-06
9.67902e-08
7.56296e-06
3.09688e-07
7.59095e-06
4.52108e-07
7.58256e-06
2.27372e-07
7.59179e-06
3.22419e-07
7.59555e-06
3.27384e-07
7.58132e-06
1.02844e-07
7.58595e-06
1.66118e-07
7.57463e-06
2.38479e-07
7.5567e-06
1.50159e-07
7.56478e-06
1.90268e-07
7.57329e-06
2.87558e-07
7.56866e-06
2.85635e-07
7.57099e-06
2.45228e-07
7.58405e-06
2.49836e-07
7.59381e-06
2.5947e-07
2.42156e-07
7.59777e-06
7.96848e-06
3.54169e-07
7.94282e-06
3.6588e-07
7.95013e-06
-7.00517e-09
7.9389e-06
1.0802e-07
7.92575e-06
3.22833e-07
7.95146e-06
4.26401e-07
7.94712e-06
2.31714e-07
7.95343e-06
3.16104e-07
7.95727e-06
3.23545e-07
7.94402e-06
1.16099e-07
7.94771e-06
1.6242e-07
7.93914e-06
2.47054e-07
7.92121e-06
1.68086e-07
7.92655e-06
1.84927e-07
7.93712e-06
2.76995e-07
7.93439e-06
2.8836e-07
7.93462e-06
2.44999e-07
7.94603e-06
2.3842e-07
7.95751e-06
2.47998e-07
2.37384e-07
7.96228e-06
8.346e-06
3.12848e-07
8.32371e-06
3.8817e-07
8.32551e-06
-8.80325e-09
8.32103e-06
1.12504e-07
8.30679e-06
3.37069e-07
8.329e-06
4.04194e-07
8.32874e-06
2.31972e-07
8.3329e-06
3.11944e-07
8.33593e-06
3.2052e-07
8.32365e-06
1.28379e-07
8.32671e-06
1.59352e-07
8.32059e-06
2.53173e-07
8.30296e-06
1.85721e-07
8.3056e-06
1.82289e-07
8.31769e-06
2.64898e-07
8.31734e-06
2.88715e-07
8.31618e-06
2.46155e-07
8.32554e-06
2.29062e-07
8.33779e-06
2.35748e-07
2.31051e-07
8.34413e-06
8.74121e-06
2.73301e-07
8.72292e-06
4.06458e-07
8.71897e-06
-4.8545e-09
8.72033e-06
1.11149e-07
8.70672e-06
3.5068e-07
8.72396e-06
3.8695e-07
8.72752e-06
2.28415e-07
8.7308e-06
3.08665e-07
8.73237e-06
3.1895e-07
8.7206e-06
1.40144e-07
8.72337e-06
1.56586e-07
8.71953e-06
2.57015e-07
8.70265e-06
2.02602e-07
8.70273e-06
1.82207e-07
8.71574e-06
2.51884e-07
8.71814e-06
2.86313e-07
8.71645e-06
2.47846e-07
8.72355e-06
2.21963e-07
8.73565e-06
2.23646e-07
2.22965e-07
8.74374e-06
9.15495e-06
2.35971e-07
9.14128e-06
4.20123e-07
9.13158e-06
4.84862e-09
9.13765e-06
1.05079e-07
9.12622e-06
3.62107e-07
9.13786e-06
3.7531e-07
9.14422e-06
2.22061e-07
9.14791e-06
3.04972e-07
9.14755e-06
3.19309e-07
9.13541e-06
1.52285e-07
9.13803e-06
1.53962e-07
9.13654e-06
2.58511e-07
9.12117e-06
2.17974e-07
9.11893e-06
1.84447e-07
9.1321e-06
2.38717e-07
9.13754e-06
2.80867e-07
9.13616e-06
2.49225e-07
9.141e-06
2.17124e-07
9.15219e-06
2.12453e-07
2.13465e-07
9.1617e-06
9.58813e-06
2.01296e-07
9.57972e-06
4.28532e-07
9.56449e-06
2.00824e-08
9.574e-06
9.55655e-08
9.56633e-06
3.69784e-07
9.57193e-06
3.69707e-07
9.57943e-06
2.14558e-07
9.58475e-06
2.99653e-07
9.58271e-06
3.21352e-07
9.56932e-06
1.65677e-07
9.57156e-06
1.5172e-07
9.57282e-06
2.57254e-07
9.55975e-06
2.31036e-07
9.5553e-06
1.88904e-07
9.56785e-06
2.26166e-07
9.57633e-06
2.7238e-07
9.57598e-06
2.49581e-07
9.57894e-06
2.14166e-07
9.58865e-06
2.02738e-07
2.03311e-07
9.5988e-06
1.00418e-05
1.6968e-07
1.00392e-05
4.31114e-07
1.00189e-05
4.037e-08
1.00302e-05
8.42274e-08
1.00277e-05
3.72294e-07
1.00275e-05
3.69945e-07
1.0034e-05
2.07983e-07
1.00419e-05
2.91815e-07
1.00394e-05
3.23805e-07
1.00242e-05
1.80903e-07
1.00253e-05
1.50578e-07
1.00298e-05
2.5278e-07
1.00196e-05
2.41265e-07
1.00133e-05
1.95144e-07
1.00243e-05
2.15238e-07
1.00353e-05
2.61332e-07
1.00367e-05
2.48235e-07
1.00384e-05
2.12461e-07
1.00463e-05
1.9481e-07
1.93369e-07
1.00562e-05
1.05169e-05
1.41451e-07
1.05205e-05
4.27486e-07
1.0496e-05
6.488e-08
1.05073e-05
7.2945e-08
1.05109e-05
3.68695e-07
1.0506e-05
3.74845e-07
1.05096e-05
2.04358e-07
1.05201e-05
2.81297e-07
1.05188e-05
3.25147e-07
1.05022e-05
1.97446e-07
1.05012e-05
1.51622e-07
1.05085e-05
2.45501e-07
1.05016e-05
2.48117e-07
1.04943e-05
2.02449e-07
1.05028e-05
2.06712e-07
1.05155e-05
2.48667e-07
1.0519e-05
2.44685e-07
1.05202e-05
2.11324e-07
1.05263e-05
1.88684e-07
1.84196e-07
1.05355e-05
1.10146e-05
1.16834e-07
1.10245e-05
4.17593e-07
1.09971e-05
9.23076e-08
1.10062e-05
6.37993e-08
1.10163e-05
3.58609e-07
1.10089e-05
3.82269e-07
1.10081e-05
2.05134e-07
1.10205e-05
2.68924e-07
1.10214e-05
3.24206e-07
1.10047e-05
2.14167e-07
1.10008e-05
1.55498e-07
1.10098e-05
2.36595e-07
1.10066e-05
2.51307e-07
1.09991e-05
2.09868e-07
1.10049e-05
2.00939e-07
1.1018e-05
2.35588e-07
1.1024e-05
2.38714e-07
1.10252e-05
2.10084e-07
1.10298e-05
1.84052e-07
1.76129e-07
1.10379e-05
1.15363e-05
9.59202e-08
1.15521e-05
4.01806e-07
1.15234e-05
1.20954e-07
1.15286e-05
5.86572e-08
1.15448e-05
3.42419e-07
1.15373e-05
3.89754e-07
1.15315e-05
2.10931e-07
1.15443e-05
2.56132e-07
1.15482e-05
3.20227e-07
1.15323e-05
2.30081e-07
1.15257e-05
1.62125e-07
1.15348e-05
2.27447e-07
1.15353e-05
2.50846e-07
1.15287e-05
2.16451e-07
1.15319e-05
1.97794e-07
1.15442e-05
2.2322e-07
1.15524e-05
2.30561e-07
1.15544e-05
2.0812e-07
1.15579e-05
1.80482e-07
1.69248e-07
1.15648e-05
1.20831e-05
7.86581e-08
1.21039e-05
3.81018e-07
1.20759e-05
1.48932e-07
1.20757e-05
5.88666e-08
1.20969e-05
3.21235e-07
1.20917e-05
3.9496e-07
1.20814e-05
2.21152e-07
1.20927e-05
2.44837e-07
1.20999e-05
3.13093e-07
1.20858e-05
2.44196e-07
1.20769e-05
1.70945e-07
1.20852e-05
2.19231e-07
1.20887e-05
2.47255e-07
1.20838e-05
2.21404e-07
1.2085e-05
1.96627e-07
1.20958e-05
2.12409e-07
1.21054e-05
2.20967e-07
1.21087e-05
2.04822e-07
1.21115e-05
1.77606e-07
1.6341e-07
1.21174e-05
1.26564e-05
6.48602e-08
1.2681e-05
3.56423e-07
1.26554e-05
1.74526e-07
1.26494e-05
6.49034e-08
1.26738e-05
2.96808e-07
1.26726e-05
3.96129e-07
1.26593e-05
2.34478e-07
1.26675e-05
2.36644e-07
1.26773e-05
3.03313e-07
1.26659e-05
2.5558e-07
1.26556e-05
1.81185e-07
1.26621e-05
2.12742e-07
1.26681e-05
2.41295e-07
1.26653e-05
2.24201e-07
1.26653e-05
1.96632e-07
1.26741e-05
2.03601e-07
1.26842e-05
2.10823e-07
1.26891e-05
1.99934e-07
1.26918e-05
1.74884e-07
1.58524e-07
1.26967e-05
1.32576e-05
5.4226e-08
1.32846e-05
3.29399e-07
1.32628e-05
1.96339e-07
1.32515e-05
7.62008e-08
1.32768e-05
2.71463e-07
1.32806e-05
3.92326e-07
1.32657e-05
2.49364e-07
1.32701e-05
2.32318e-07
1.32816e-05
2.91806e-07
1.32736e-05
2.63592e-07
1.32629e-05
1.91836e-07
1.32673e-05
2.08356e-07
1.32746e-05
2.33958e-07
1.32742e-05
2.24672e-07
1.32738e-05
1.9698e-07
1.32807e-05
1.967e-07
1.32906e-05
2.00956e-07
1.32968e-05
1.93686e-07
1.33e-05
1.71712e-07
1.5447e-07
1.33041e-05
1.3888e-05
4.63492e-08
1.39165e-05
3.00963e-07
1.38992e-05
2.1365e-07
1.38836e-05
9.17216e-08
1.39075e-05
2.4759e-07
1.39161e-05
3.83723e-07
1.39016e-05
2.63878e-07
1.39022e-05
2.31685e-07
1.39142e-05
2.79816e-07
1.39099e-05
2.67907e-07
1.38997e-05
2.02004e-07
1.39021e-05
2.06006e-07
1.39099e-05
2.26129e-07
1.39117e-05
2.22938e-07
1.39116e-05
1.97e-07
1.3917e-05
1.91339e-07
1.39261e-05
1.9187e-07
1.39331e-05
1.86708e-07
1.39371e-05
1.67659e-07
1.50909e-07
1.39407e-05
1.45492e-05
4.07659e-08
1.45774e-05
2.72808e-07
1.45653e-05
2.25782e-07
1.45468e-05
1.10154e-07
1.45673e-05
2.27108e-07
1.45802e-05
3.70888e-07
1.45679e-05
2.76168e-07
1.45655e-05
2.34017e-07
1.45769e-05
2.68424e-07
1.45761e-05
2.68782e-07
1.45673e-05
2.10752e-07
1.45679e-05
2.05401e-07
1.45756e-05
2.18478e-07
1.45791e-05
2.19373e-07
1.45798e-05
1.96278e-07
1.45842e-05
1.8702e-07
1.45923e-05
1.83725e-07
1.45995e-05
1.79538e-07
1.46043e-05
1.62853e-07
1.4725e-07
1.46079e-05
1.52427e-05
3.6963e-08
1.52696e-05
2.45921e-07
1.52625e-05
2.32815e-07
1.5242e-05
1.30736e-07
1.52577e-05
2.11318e-07
1.5274e-05
3.54617e-07
1.52654e-05
2.84748e-07
1.52613e-05
2.38167e-07
1.52715e-05
2.5821e-07
1.52734e-05
2.66839e-07
1.52666e-05
2.17565e-07
1.52662e-05
2.05878e-07
1.52731e-05
2.11566e-07
1.52781e-05
2.14349e-07
1.52798e-05
1.94594e-07
1.52835e-05
1.83282e-07
1.52907e-05
1.76547e-07
1.52979e-05
1.72368e-07
1.53029e-05
1.57764e-07
1.43147e-07
1.53071e-05
1.59698e-05
3.44981e-08
1.59944e-05
2.21323e-07
1.59916e-05
2.35642e-07
1.59705e-05
1.51798e-07
1.5981e-05
2.00783e-07
1.59996e-05
3.36049e-07
1.59956e-05
2.88769e-07
1.59909e-05
2.42885e-07
1.59997e-05
2.49413e-07
1.60038e-05
2.62724e-07
1.59991e-05
2.22268e-07
1.59981e-05
2.06824e-07
1.60041e-05
2.0556e-07
1.60101e-05
2.08437e-07
1.6013e-05
1.91681e-07
1.60163e-05
1.79915e-07
1.60227e-05
1.70185e-07
1.60297e-05
1.65331e-07
1.60349e-05
1.52561e-07
1.38728e-07
1.60394e-05
1.67321e-05
3.30441e-08
1.67512e-05
2.02148e-07
1.67529e-05
2.33995e-07
1.67342e-05
1.70516e-07
1.67403e-05
1.9467e-07
1.67596e-05
3.1677e-07
1.67599e-05
2.88378e-07
1.67557e-05
2.4713e-07
1.67631e-05
2.42047e-07
1.67687e-05
2.57051e-07
1.67662e-05
2.24771e-07
1.67652e-05
2.07855e-07
1.67704e-05
2.00345e-07
1.67767e-05
2.02165e-07
1.67808e-05
1.87557e-07
1.67843e-05
1.76381e-07
1.67898e-05
1.647e-07
1.67967e-05
1.58489e-07
1.6802e-05
1.47221e-07
1.34286e-07
1.68065e-05
1.75312e-05
3.22321e-08
1.75483e-05
1.85023e-07
1.75518e-05
2.30485e-07
1.75352e-05
1.87132e-07
1.75377e-05
1.92188e-07
1.75562e-05
2.98206e-07
1.75603e-05
2.84358e-07
1.75572e-05
2.50147e-07
1.75633e-05
2.35982e-07
1.757e-05
2.50335e-07
1.75697e-05
2.251e-07
1.7569e-05
2.08514e-07
1.75734e-05
1.96014e-07
1.75798e-05
1.95702e-07
1.75848e-05
1.82596e-07
1.75889e-05
1.72218e-07
1.75938e-05
1.59887e-07
1.76002e-05
1.52066e-07
1.76057e-05
1.41684e-07
1.29851e-07
1.76102e-05
1.83688e-05
3.18088e-08
1.83826e-05
1.71144e-07
1.83886e-05
2.24569e-07
1.83752e-05
2.00466e-07
1.83753e-05
1.92133e-07
1.83919e-05
2.81638e-07
1.83985e-05
2.77686e-07
1.8397e-05
2.51688e-07
1.84021e-05
2.30897e-07
1.84094e-05
2.42981e-07
1.84111e-05
2.23397e-07
1.84112e-05
2.08401e-07
1.84148e-05
1.92428e-07
1.84212e-05
1.89335e-07
1.84267e-05
1.7708e-07
1.84316e-05
1.67343e-07
1.84363e-05
1.5516e-07
1.8442e-05
1.46331e-07
1.84478e-05
1.35884e-07
1.25374e-07
1.84523e-05
1.92466e-05
3.15539e-08
1.9258e-05
1.59822e-07
1.92653e-05
2.17207e-07
1.92554e-05
2.10414e-07
1.92541e-05
1.93456e-07
1.92684e-05
2.67249e-07
1.92768e-05
2.6935e-07
1.92768e-05
2.51692e-07
1.92811e-05
2.26547e-07
1.92887e-05
2.35389e-07
1.92923e-05
2.19826e-07
1.92935e-05
2.07225e-07
1.92967e-05
1.89212e-07
1.93026e-05
1.83388e-07
1.93085e-05
1.71179e-07
1.93139e-05
1.61947e-07
1.9319e-05