/*--------------------------------*- C++ -*----------------------------------*\
| =========                 |                                                 |
| \\      /  F ield         | OpenFOAM: The Open Source CFD Toolbox           |
|  \\    /   O peration     | Version:  2506                                  |
|   \\  /    A nd           | Website:  www.openfoam.com                      |
|    \\/     M anipulation  |                                                 |
\*---------------------------------------------------------------------------*/
FoamFile
{
    version     2.0;
    format      ascii;
    arch        "LSB;label=32;scalar=64";
    class       volVectorField;
    location    "5.35";
    object      U;
}
// * * * * * * * * * * * * * * * * * * * * * * * * * * * * * * * * * * * * * //

dimensions      [0 1 -1 0 0 0 0];

internalField   nonuniform List<vector> 
9600
(
(0.940077 0.014902 0)
(1.07361 -0.00343789 0)
(0.942273 0.00479342 0)
(1.10618 -0.0270354 0)
(0.739575 0.020487 0)
(1.25758 0.0168511 0)
(0.755889 -0.00761748 0)
(1.07221 0.0132595 0)
(0.908393 0.0101283 0)
(1.03175 -0.00568374 0)
(0.87276 0.0096387 0)
(1.09758 -0.0219533 0)
(0.83459 0.0131669 0)
(1.15096 -0.00100167 0)
(0.77462 0.0168197 0)
(1.17592 0.0158027 0)
(0.771861 0.0141289 0)
(1.15963 0.0246086 0)
(0.812944 0.0165319 0)
(1.11846 0.0241571 0)
(0.94233 0.0148008 0)
(1.06676 -0.00330849 0)
(0.944168 0.00436385 0)
(1.09745 -0.0248959 0)
(0.742274 0.0194858 0)
(1.24538 0.0171322 0)
(0.776352 -0.00582408 0)
(1.06474 0.0121244 0)
(0.921767 0.0105515 0)
(1.02536 -0.00484999 0)
(0.886084 0.00825329 0)
(1.08327 -0.0207494 0)
(0.845612 0.0117654 0)
(1.13067 0.00130072 0)
(0.796741 0.016268 0)
(1.1407 0.0162414 0)
(0.828754 0.0146225 0)
(1.09162 0.0229237 0)
(0.919319 0.0189327 0)
(0.997665 0.0219066 0)
(0.94695 0.0146758 0)
(1.05714 -0.00320666 0)
(0.948338 0.00407104 0)
(1.08727 -0.0231656 0)
(0.753322 0.0176612 0)
(1.21809 0.0171669 0)
(0.816022 -0.00426078 0)
(1.04375 0.0104596 0)
(0.942137 0.0109432 0)
(1.01205 -0.0043287 0)
(0.909916 0.00712767 0)
(1.05898 -0.019749 0)
(0.873318 0.0105453 0)
(1.09322 0.00222204 0)
(0.848969 0.0152808 0)
(1.07674 0.0158053 0)
(0.905412 0.0155105 0)
(1.01684 0.0207875 0)
(0.974651 0.0209287 0)
(0.966825 0.0212538 0)
(0.953418 0.0145849 0)
(1.04692 -0.00310196 0)
(0.955033 0.00378358 0)
(1.07535 -0.0214654 0)
(0.775285 0.0160793 0)
(1.17652 0.0167394 0)
(0.868843 -0.00270563 0)
(1.01199 0.00916289 0)
(0.95965 0.0111852 0)
(0.996692 -0.00386553 0)
(0.93572 0.00635227 0)
(1.03088 -0.0190322 0)
(0.908909 0.00970712 0)
(1.05403 0.00265411 0)
(0.90803 0.0153571 0)
(1.02459 0.0147787 0)
(0.958631 0.0164569 0)
(0.985574 0.0197969 0)
(0.985775 0.0214573 0)
(0.975094 0.0219644 0)
(0.960935 0.0145284 0)
(1.03766 -0.00300004 0)
(0.963361 0.0035034 0)
(1.06218 -0.0199146 0)
(0.806943 0.0150307 0)
(1.12642 0.0159482 0)
(0.921599 -0.00112742 0)
(0.98001 0.00837258 0)
(0.96855 0.0112464 0)
(0.985545 -0.00354347 0)
(0.955367 0.00578323 0)
(1.00789 -0.018518 0)
(0.939764 0.00918578 0)
(1.02503 0.00262126 0)
(0.95192 0.0160027 0)
(1.00074 0.013869 0)
(0.984301 0.0171677 0)
(0.985219 0.019638 0)
(0.988899 0.0213186 0)
(0.984377 0.0229156 0)
(0.96863 0.014482 0)
(1.03046 -0.00290727 0)
(0.972013 0.00326535 0)
(1.04855 -0.0185512 0)
(0.843475 0.0144278 0)
(1.07754 0.0148645 0)
(0.962731 0.0003177 0)
(0.958558 0.00807882 0)
(0.970401 0.0110566 0)
(0.98106 -0.00341635 0)
(0.966691 0.00538693 0)
(0.995346 -0.0181352 0)
(0.959691 0.00873845 0)
(1.00814 0.00245786 0)
(0.976517 0.0163844 0)
(0.995135 0.0134069 0)
(0.99398 0.0174125 0)
(0.991066 0.0196548 0)
(0.99251 0.0212509 0)
(0.989218 0.0236396 0)
(0.975787 0.0144225 0)
(1.0257 -0.00281985 0)
(0.979964 0.00309779 0)
(1.03544 -0.0174213 0)
(0.878935 0.0141588 0)
(1.03896 0.0136701 0)
(0.988151 0.0014978 0)
(0.951241 0.00819997 0)
(0.970732 0.0106766 0)
(0.98194 -0.00343308 0)
(0.972504 0.00510115 0)
(0.992651 -0.017854 0)
(0.969688 0.00835681 0)
(0.999844 0.00223687 0)
(0.987352 0.0163721 0)
(0.995199 0.0133002 0)
(0.996495 0.017281 0)
(0.99331 0.0198271 0)
(0.99371 0.0212554 0)
(0.990096 0.0240949 0)
(0.982 0.0143349 0)
(1.02301 -0.00273287 0)
(0.986794 0.00301399 0)
(1.02365 -0.0165246 0)
(0.909092 0.0141334 0)
(1.01462 0.0125571 0)
(1.00029 0.00236941 0)
(0.954419 0.00856696 0)
(0.97367 0.0102271 0)
(0.985862 -0.0035017 0)
(0.976633 0.00483976 0)
(0.99537 -0.0176083 0)
(0.973982 0.0080925 0)
(0.996286 0.00197399 0)
(0.990852 0.0161876 0)
(0.995603 0.013359 0)
(0.996397 0.0170862 0)
(0.992437 0.0202101 0)
(0.992459 0.0211741 0)
(0.988792 0.0244674 0)
(0.987164 0.0142109 0)
(1.02156 -0.00264601 0)
(0.992585 0.00301918 0)
(1.0136 -0.0158227 0)
(0.932583 0.0142274 0)
(1.00307 0.0116225 0)
(1.00421 0.0029713 0)
(0.962246 0.00899593 0)
(0.979847 0.00978715 0)
(0.991049 -0.00355905 0)
(0.981367 0.00456988 0)
(0.999118 -0.0173232 0)
(0.976451 0.00792672 0)
(0.994875 0.00174164 0)
(0.991418 0.0159246 0)
(0.995544 0.0135045 0)
(0.996006 0.016952 0)
(0.991226 0.0206885 0)
(0.991315 0.0210425 0)
(0.988076 0.0248504 0)
(0.991353 0.0140485 0)
(1.02053 -0.00256128 0)
(0.997584 0.00310925 0)
(1.00539 -0.0152679 0)
(0.950221 0.0143156 0)
(1.00024 0.0108892 0)
(1.00446 0.00338529 0)
(0.970671 0.00935563 0)
(0.987764 0.00938768 0)
(0.996353 -0.00357861 0)
(0.987041 0.00431911 0)
(1.00176 -0.0169539 0)
(0.979086 0.00782523 0)
(0.994187 0.00160477 0)
(0.991318 0.0155819 0)
(0.995296 0.0137267 0)
(0.996202 0.0168014 0)
(0.991277 0.0211736 0)
(0.991971 0.020921 0)
(0.989621 0.0251412 0)
(0.994673 0.0138509 0)
(1.01939 -0.00247943 0)
(1.00195 0.00326851 0)
(0.998988 -0.0148219 0)
(0.963585 0.0143191 0)
(1.00216 0.0103434 0)
(1.0039 0.003686 0)
(0.978105 0.00959364 0)
(0.995726 0.00901578 0)
(1.00103 -0.00356257 0)
(0.992779 0.00411994 0)
(1.00309 -0.0164863 0)
(0.982178 0.00775822 0)
(0.993661 0.00159364 0)
(0.991298 0.0151661 0)
(0.99502 0.0139986 0)
(0.996865 0.0165593 0)
(0.992596 0.021629 0)
(0.994263 0.0207836 0)
(0.993132 0.0252126 0)
(0.997186 0.0136259 0)
(1.01792 -0.0024027 0)
(1.00571 0.00348041 0)
(0.99436 -0.0144545 0)
(0.973922 0.0142064 0)
(1.00597 0.00995496 0)
(1.00377 0.00392931 0)
(0.984299 0.00970568 0)
(1.00266 0.00866801 0)
(1.00464 -0.00350679 0)
(0.997494 0.00398466 0)
(1.00357 -0.0159249 0)
(0.985212 0.00769815 0)
(0.993246 0.00171882 0)
(0.991375 0.0146818 0)
(0.994711 0.0142931 0)
(0.99755 0.0162059 0)
(0.994408 0.0220025 0)
(0.997137 0.0206151 0)
(0.997329 0.0250308 0)
(0.998912 0.0133835 0)
(1.01613 -0.00233224 0)
(1.0088 0.00372323 0)
(0.991448 -0.0141413 0)
(0.981816 0.0139751 0)
(1.00984 0.00969225 0)
(1.00425 0.00413973 0)
(0.989303 0.00972061 0)
(1.00807 0.00835172 0)
(1.00707 -0.00339963 0)
(1.00059 0.00390711 0)
(1.00355 -0.0152921 0)
(0.987647 0.00762203 0)
(0.993025 0.00197488 0)
(0.991482 0.0141291 0)
(0.994409 0.0146058 0)
(0.998064 0.0157576 0)
(0.996111 0.0222416 0)
(0.999807 0.0204475 0)
(1.00122 0.0246112 0)
(0.999886 0.0131332 0)
(1.01421 -0.00226709 0)
(1.01117 0.00397049 0)
(0.990101 -0.01386 0)
(0.987434 0.0136429 0)
(1.01268 0.00952333 0)
(1.00507 0.00432286 0)
(0.993113 0.00967779 0)
(1.01183 0.00806643 0)
(1.00842 -0.00323294 0)
(1.00216 0.00387239 0)
(1.0031 -0.0146124 0)
(0.989287 0.00750578 0)
(0.993019 0.00234716 0)
(0.991714 0.0135082 0)
(0.994294 0.0149254 0)
(0.998592 0.0152582 0)
(0.997649 0.0223125 0)
(1.00215 0.0203187 0)
(1.00457 0.0239803 0)
(1.0002 0.0128834 0)
(1.01237 -0.00220756 0)
(1.01282 0.00420145 0)
(0.990042 -0.0135873 0)
(0.990918 0.0132426 0)
(1.01405 0.00941561 0)
(1.00583 0.00447925 0)
(0.99573 0.00960467 0)
(1.01407 0.00780999 0)
(1.00893 -0.0030114 0)
(1.00272 0.00386976 0)
(1.00231 -0.0139011 0)
(0.990275 0.00733189 0)
(0.99317 0.00279998 0)
(0.992218 0.0128315 0)
(0.994564 0.0152298 0)
(0.999406 0.0147507 0)
(0.999246 0.0221866 0)
(1.00433 0.0202472 0)
(1.00748 0.0231884 0)
(1.00004 0.012639 0)
(1.0108 -0.00215258 0)
(1.0138 0.00440043 0)
(0.990896 -0.0133023 0)
(0.992612 0.0128078 0)
(1.01399 0.00934712 0)
(1.00631 0.0045971 0)
(0.997273 0.0095232 0)
(1.0151 0.00758181 0)
(1.00892 -0.00274692 0)
(1.00281 0.00389197 0)
(1.00139 -0.013155 0)
(0.990884 0.00708526 0)
(0.993396 0.00329758 0)
(0.992999 0.0121133 0)
(0.99522 0.0154911 0)
(1.00052 0.0142737 0)
(1.00093 0.0218572 0)
(1.00632 0.0202328 0)
(1.00991 0.0223013 0)
(0.999594 0.0124019 0)
(1.00957 -0.00209958 0)
(1.01422 0.00455776 0)
(0.992257 -0.0129895 0)
(0.993044 0.0123672 0)
(1.01292 0.00930098 0)
(1.00647 0.00466904 0)
(0.997989 0.00944883 0)
(1.01529 0.00737006 0)
(1.00866 -0.00245422 0)
(1.00277 0.00393091 0)
(1.00062 -0.0123715 0)
(0.991346 0.00676235 0)
(0.993626 0.00381915 0)
(0.993886 0.0113627 0)
(0.996005 0.0156808 0)
(1.00163 0.013858 0)
(1.00239 0.0213446 0)
(1.00778 0.0202699 0)
(1.01154 0.0214034 0)
(0.999067 0.0121703 0)
(1.00868 -0.00204394 0)
(1.01424 0.00466826 0)
(0.993772 -0.01264 0)
(0.992777 0.0119387 0)
(1.01137 0.00926615 0)
(1.00643 0.0046947 0)
(0.998176 0.00938693 0)
(1.01498 0.0071619 0)
(1.00832 -0.00214928 0)
(1.00269 0.00398273 0)
(1.00018 -0.0115559 0)
(0.991786 0.00638024 0)
(0.993794 0.00434915 0)
(0.994658 0.0106046 0)
(0.996581 0.0157824 0)
(1.00238 0.0135281 0)
(1.00326 0.0206849 0)
(1.00838 0.0203416 0)
(1.01212 0.0205785 0)
(0.998585 0.0119409 0)
(1.00806 -0.00198139 0)
(1.014 0.00473222 0)
(0.995196 -0.01225 0)
(0.992259 0.011529 0)
(1.00974 0.00923921 0)
(1.00635 0.00467133 0)
(0.998094 0.00934271 0)
(1.01441 0.00695241 0)
(1.00798 -0.00184692 0)
(1.00257 0.00403863 0)
(1.0001 -0.0107103 0)
(0.992247 0.00596041 0)
(0.993862 0.00488221 0)
(0.995185 0.00986973 0)
(0.996752 0.0157859 0)
(1.00257 0.0133171 0)
(1.00343 0.0199322 0)
(1.00807 0.020413 0)
(1.01173 0.0198717 0)
(0.99821 0.0117103 0)
(1.00764 -0.00190823 0)
(1.01365 0.00475264 0)
(0.996398 -0.0118175 0)
(0.991762 0.0111368 0)
(1.00828 0.00921902 0)
(1.0063 0.00460205 0)
(0.997923 0.00931849 0)
(1.01372 0.0067386 0)
(1.00769 -0.00155421 0)
(1.00237 0.00408637 0)
(1.00026 -0.00984198 0)
(0.992741 0.00552829 0)
(0.993832 0.00540353 0)
(0.995472 0.00919164 0)
(0.996554 0.0156955 0)
(1.00227 0.013237 0)
(1.00307 0.0191378 0)
(1.0071 0.0204519 0)
(1.0107 0.0193004 0)
(0.997954 0.011475 0)
(1.00734 -0.00182056 0)
(1.01327 0.00473157 0)
(0.997339 -0.0113414 0)
(0.991418 0.0107544 0)
(1.0071 0.00920456 0)
(1.00628 0.00449088 0)
(0.997763 0.00931665 0)
(1.01301 0.00651912 0)
(1.00744 -0.00127744 0)
(1.00209 0.00413376 0)
(1.00055 -0.00896725 0)
(0.993271 0.00511628 0)
(0.993755 0.00590032 0)
(0.995609 0.00859813 0)
(0.996182 0.0155309 0)
(1.00167 0.0132576 0)
(1.0025 0.0183292 0)
(1.00586 0.0204314 0)
(1.00944 0.0188801 0)
(0.997801 0.011232 0)
(1.00713 -0.00171665 0)
(1.0129 0.00467479 0)
(0.998041 -0.0108264 0)
(0.991258 0.0103756 0)
(1.00622 0.00919658 0)
(1.00627 0.00434313 0)
(0.997665 0.00933142 0)
(1.01234 0.00630312 0)
(1.00726 -0.00101407 0)
(1.00175 0.00417719 0)
(1.00085 -0.00810605 0)
(0.993835 0.00472339 0)
(0.993697 0.00639081 0)
(0.995699 0.00808237 0)
(0.995845 0.0152955 0)
(1.00102 0.0133546 0)
(1.00201 0.0175329 0)
(1.00469 0.0203216 0)
(1.00828 0.018611 0)
(0.997724 0.0109793 0)
(1.00698 -0.00159504 0)
(1.01255 0.00458579 0)
(0.998556 -0.0102737 0)
(0.991259 0.00999121 0)
(1.00562 0.00919844 0)
(1.00623 0.00416952 0)
(0.997642 0.00935372 0)
(1.01173 0.0060973 0)
(1.00715 -0.000770386 0)
(1.00137 0.00421779 0)
(1.00113 -0.00726311 0)
(0.994424 0.00435712 0)
(0.993708 0.00687802 0)
(0.995803 0.00764958 0)
(0.995683 0.0149906 0)
(1.00045 0.0135212 0)
(1.00175 0.0167758 0)
(1.00379 0.0200941 0)
(1.00735 0.0184696 0)
(0.997696 0.0107145 0)
(1.00687 -0.00145332 0)
(1.01221 0.00446596 0)
(0.99895 -0.00968457 0)
(0.991374 0.00959256 0)
(1.00523 0.00921502 0)
(1.00616 0.00396921 0)
(0.997689 0.0093893 0)
(1.01116 0.00590419 0)
(1.00712 -0.000555497 0)
(1.00097 0.00427584 0)
(1.00134 -0.00642877 0)
(0.995023 0.00401404 0)
(0.993805 0.00733737 0)
(0.99594 0.00732202 0)
(0.995735 0.0146119 0)
(1.00001 0.0137372 0)
(1.00174 0.01608 0)
(1.00323 0.0197286 0)
(1.00669 0.0184291 0)
(0.997699 0.0104365 0)
(1.00679 -0.00129148 0)
(1.01187 0.00431772 0)
(0.999273 -0.00906118 0)
(0.991556 0.00917519 0)
(1.005 0.00924651 0)
(1.00605 0.00374596 0)
(0.997789 0.00942678 0)
(1.01061 0.00573424 0)
(1.00715 -0.000367232 0)
(1.00058 0.00436257 0)
(1.0015 -0.00560826 0)
(0.995623 0.00367431 0)
(0.993983 0.00776129 0)
(0.996106 0.00708219 0)
(0.995978 0.0141459 0)
(0.999716 0.0139822 0)
(1.00191 0.0154772 0)
(1.00297 0.0192159 0)
(1.00623 0.0184527 0)
(0.99772 0.0101447 0)
(1.00673 -0.00110918 0)
(1.01153 0.00414282 0)
(0.999558 -0.00840776 0)
(0.991776 0.00874236 0)
(1.00486 0.00928878 0)
(1.00593 0.00351927 0)
(0.99792 0.00945286 0)
(1.01008 0.00559541 0)
(1.00722 -0.0002126 0)
(1.00021 0.00447283 0)
(1.00161 -0.00478937 0)
(0.996225 0.00335235 0)
(0.994219 0.00815872 0)
(0.996285 0.00693728 0)
(0.996366 0.0136037 0)
(0.999532 0.0142206 0)
(1.00217 0.0149842 0)
(1.00295 0.0185619 0)
(1.00593 0.0184764 0)
(0.997757 0.00983705 0)
(1.00667 -0.000903543 0)
(1.01119 0.0039424 0)
(0.999819 -0.00772679 0)
(0.992024 0.00829151 0)
(1.00476 0.00934396 0)
(1.0058 0.00329261 0)
(0.998065 0.00946282 0)
(1.00957 0.00549921 0)
(1.00732 -9.50054e-05 0)
(0.999871 0.00460048 0)
(1.00166 -0.00397204 0)
(0.996834 0.00303471 0)
(0.994495 0.00851542 0)
(0.996464 0.00690013 0)
(0.996846 0.012994 0)
(0.999444 0.0144176 0)
(1.00244 0.0146218 0)
(1.00311 0.0177974 0)
(1.00573 0.0184216 0)
(0.997809 0.00951428 0)
(1.0066 -0.000677421 0)
(1.01085 0.00371741 0)
(1.00005 -0.0070174 0)
(0.992306 0.00782192 0)
(1.00466 0.00940439 0)
(1.00569 0.00306677 0)
(0.998211 0.00944581 0)
(1.00906 0.00544524 0)
(1.00743 -1.42221e-05 0)
(0.999577 0.00473485 0)
(1.00166 -0.00316115 0)
(0.997456 0.00270914 0)
(0.994799 0.00881954 0)
(0.996633 0.00697782 0)
(0.997382 0.0123301 0)
(0.999447 0.0145426 0)
(1.00267 0.0144029 0)
(1.00337 0.0169644 0)
(1.00562 0.0182151 0)
(0.997876 0.00917657 0)
(1.00651 -0.000430175 0)
(1.01054 0.0034695 0)
(1.00025 -0.00628773 0)
(0.992627 0.00734728 0)
(1.00454 0.00945786 0)
(1.0056 0.00285799 0)
(0.998355 0.00939005 0)
(1.00858 0.00544057 0)
(1.00754 3.94608e-05 0)
(0.999336 0.0048623 0)
(1.00161 -0.00233658 0)
(0.998093 0.0023875 0)
(0.995132 0.0090442 0)
(0.996783 0.0071755 0)
(0.997944 0.0116446 0)
(0.999543 0.0145479 0)
(1.00282 0.0143125 0)
(1.00368 0.0161378 0)
(1.0056 0.0178085 0)
(0.997958 0.00882226 0)
(1.0064 -0.000158781 0)
(1.01025 0.00319917 0)
(1.0004 -0.0055431 0)
(0.992988 0.00687165 0)
(1.0044 0.0095096 0)
(1.00553 0.00267249 0)
(0.998495 0.00927929 0)
(1.00811 0.00549932 0)
(1.00765 7.52035e-05 0)
(0.999155 0.00497146 0)
(1.0015 -0.00150088 0)
(0.998736 0.002086 0)
(0.9955 0.00916207 0)
(0.99691 0.00746937 0)
(0.998511 0.0109711 0)
(0.999737 0.014408 0)
(1.00291 0.0143204 0)
(1.00399 0.0154136 0)
(1.00568 0.0172087 0)
(0.998053 0.0084537 0)
(1.00626 0.000132829 0)
(1.00999 0.00291027 0)
(1.00052 -0.00478663 0)
(0.993384 0.00639673 0)
(1.00424 0.00954999 0)
(1.00549 0.00252529 0)
(0.998637 0.00910769 0)
(1.00765 0.00561263 0)
(1.00774 9.81249e-05 0)
(0.99904 0.00504946 0)
(1.00134 -0.00064816 0)
(0.999378 0.00182331 0)
(0.995913 0.00917383 0)
(0.997013 0.00785125 0)
(0.999061 0.0103642 0)
(1.00003 0.0141175 0)
(1.00297 0.0143653 0)
(1.00426 0.0148393 0)
(1.00584 0.0164538 0)
(0.998159 0.00806993 0)
(1.00609 0.000443791 0)
(1.00975 0.00260647 0)
(1.00061 -0.00402954 0)
(0.993805 0.00593811 0)
(1.00408 0.00955872 0)
(1.00546 0.00242251 0)
(0.998785 0.00887242 0)
(1.0072 0.00576419 0)
(1.00782 0.000125651 0)
(0.998995 0.00508294 0)
(1.00115 0.000225462 0)
(1 0.00163391 0)
(0.996382 0.00907742 0)
(0.997098 0.00828739 0)
(0.999577 0.00986927 0)
(1.00042 0.0136903 0)
(1.00302 0.0143829 0)
(1.00445 0.0144347 0)
(1.00606 0.0156329 0)
(0.998272 0.0076734 0)
(1.00589 0.000769559 0)
(1.00953 0.00228769 0)
(1.00068 -0.00327481 0)
(0.994236 0.00550102 0)
(1.00392 0.00952807 0)
(1.00543 0.0023806 0)
(0.998943 0.00857271 0)
(1.00676 0.00594428 0)
(1.00787 0.00018389 0)
(0.999021 0.00505929 0)
(1.00093 0.00109653 0)
(1.0006 0.00152935 0)
(0.996912 0.00887584 0)
(0.997173 0.00874303 0)
(1.00004 0.00950222 0)
(1.00089 0.0131575 0)
(1.0031 0.0143267 0)
(1.00456 0.0141693 0)
(1.00628 0.0148681 0)
(0.99839 0.00726389 0)
(1.00567 0.00111243 0)
(1.00933 0.00196352 0)
(1.00074 -0.00253935 0)
(0.994667 0.0050982 0)
(1.00377 0.00944996 0)
(1.0054 0.00241402 0)
(0.999113 0.00822145 0)
(1.00633 0.00613335 0)
(1.0079 0.000268082 0)
(0.999114 0.00497817 0)
(1.0007 0.00195313 0)
(1.00115 0.00152431 0)
(0.997507 0.00856867 0)
(0.997252 0.00918192 0)
(1.00043 0.00927183 0)
(1.00141 0.0125548 0)
(1.00323 0.0141779 0)
(1.00461 0.0139813 0)
(1.00646 0.0142363 0)
(0.998511 0.00684258 0)
(1.00543 0.0014665 0)
(1.00913 0.00163757 0)
(1.00079 -0.00183116 0)
(0.995088 0.00474995 0)
(1.00363 0.00930894 0)
(1.00537 0.0025198 0)
(0.999298 0.00783462 0)
(1.00591 0.00631083 0)
(1.0079 0.000403169 0)
(0.999275 0.00483983 0)
(1.00047 0.00276492 0)
(1.00164 0.00163427 0)
(0.998164 0.00817869 0)
(0.997351 0.00955625 0)
(1.00075 0.00917347 0)
(1.00196 0.0119298 0)
(1.00343 0.0139326 0)
(1.00461 0.0138236 0)
(1.00657 0.0137612 0)
(0.998634 0.00641307 0)
(1.00518 0.00182565 0)
(1.00893 0.00131754 0)
(1.00085 -0.00115748 0)
(0.995494 0.00446539 0)
(1.0035 0.00908668 0)
(1.00532 0.00269246 0)
(0.999497 0.00742947 0)
(1.0055 0.00646038 0)
(1.00787 0.000601857 0)
(0.999494 0.00467149 0)
(1.00026 0.00350535 0)
(1.00206 0.00185069 0)
(0.998872 0.00774944 0)
(0.997489 0.00984139 0)
(1.00098 0.00918533 0)
(1.00252 0.0113267 0)
(1.0037 0.0136008 0)
(1.00461 0.0136613 0)
(1.0066 0.0134067 0)
(0.998756 0.00597409 0)
(1.00491 0.00219229 0)
(1.00874 0.00100819 0)
(1.00091 -0.000537405 0)
(0.995878 0.00425692 0)
(1.00339 0.00878848 0)
(1.00525 0.00290757 0)
(0.999705 0.00703018 0)
(1.00511 0.00656751 0)
(1.00781 0.000843362 0)
(0.999766 0.00450424 0)
(1.00007 0.00416409 0)
(1.0024 0.00216099 0)
(0.999618 0.0073098 0)
(0.997681 0.0100266 0)
(1.00113 0.00929062 0)
(1.00306 0.0107634 0)
(1.00404 0.0131811 0)
(1.00461 0.0134822 0)
(1.00656 0.0131173 0)
(0.998878 0.00553073 0)
(1.00463 0.0025567 0)
(1.00854 0.000714141 0)
(1.00098 2.38247e-05 0)
(0.996237 0.00413814 0)
(1.00329 0.00841708 0)
(1.00518 0.00314873 0)
(0.999919 0.00666917 0)
(1.00474 0.00661751 0)
(1.00772 0.00113272 0)
(1.00008 0.0043432 0)
(0.999924 0.00472566 0)
(1.00268 0.00253623 0)
(1.00038 0.00688356 0)
(0.997943 0.010107 0)
(1.00121 0.00947849 0)
(1.00355 0.0102648 0)
(1.00446 0.0126728 0)
(1.00465 0.0132898 0)
(1.00648 0.0128626 0)
(0.998998 0.00508522 0)
(1.00433 0.0029132 0)
(1.00834 0.000456 0)
(1.00106 0.000503727 0)
(0.996567 0.00411467 0)
(1.0032 0.00799755 0)
(1.00511 0.00338854 0)
(1.00013 0.00636135 0)
(1.0044 0.00661096 0)
(1.0076 0.00145288 0)
(1.00043 0.0041896 0)
(0.999822 0.00520382 0)
(1.00287 0.0029639 0)
(1.00115 0.00649666 0)
(0.998288 0.0100672 0)
(1.00124 0.00971401 0)
(1.00396 0.00987725 0)
(1.00493 0.0120934 0)
(1.00474 0.0130683 0)
(1.00635 0.0126451 0)
(0.999117 0.00463898 0)
(1.00402 0.00325822 0)
(1.00813 0.000232933 0)
(1.00115 0.000889562 0)
(0.996868 0.00417624 0)
(1.00312 0.00755645 0)
(1.00504 0.00360681 0)
(1.00034 0.00611404 0)
(1.00409 0.00656604 0)
(1.00747 0.00177365 0)
(1.0008 0.00406639 0)
(0.999772 0.00560879 0)
(1.00301 0.00342452 0)
(1.00191 0.00615201 0)
(0.998719 0.00991221 0)
(1.00123 0.00995661 0)
(1.00429 0.00961864 0)
(1.00544 0.0114583 0)
(1.0049 0.0127666 0)
(1.00621 0.0124909 0)
(0.999233 0.00419654 0)
(1.0037 0.00358316 0)
(1.00791 5.32168e-05 0)
(1.00127 0.00117483 0)
(0.997139 0.00430546 0)
(1.00305 0.00711431 0)
(1.00497 0.00377557 0)
(1.00055 0.0059359 0)
(1.00381 0.00648991 0)
(1.00732 0.00208584 0)
(1.0012 0.00396676 0)
(0.999774 0.0059381 0)
(1.00307 0.00390194 0)
(1.00262 0.00585314 0)
(0.99924 0.00966943 0)
(1.00122 0.0101799 0)
(1.00449 0.00948373 0)
(1.00596 0.010819 0)
(1.00516 0.0123447 0)
(1.00607 0.0123719 0)
(0.999346 0.00376243 0)
(1.00337 0.00388208 0)
(1.00767 -6.72519e-05 0)
(1.00139 0.00135788 0)
(0.997384 0.00448555 0)
(1.00297 0.00669756 0)
(1.00491 0.00387505 0)
(1.00075 0.00582499 0)
(1.00354 0.00640573 0)
(1.00716 0.00237371 0)
(1.0016 0.00388126 0)
(0.999832 0.0062036 0)
(1.00309 0.00439313 0)
(1.00329 0.0056227 0)
(0.999847 0.00935039 0)
(1.00124 0.0103536 0)
(1.00458 0.00946137 0)
(1.00644 0.0102452 0)
(1.00552 0.011806 0)
(1.00598 0.0122101 0)
(0.999454 0.0033392 0)
(1.00304 0.00414696 0)
(1.0074 -0.000120687 0)
(1.00154 0.00144815 0)
(0.997607 0.00469102 0)
(1.00288 0.00632897 0)
(1.00487 0.00390397 0)
(1.00094 0.0057504 0)
(1.00329 0.00634055 0)
(1.00699 0.00262251 0)
(1.00202 0.00380657 0)
(0.999948 0.00641236 0)
(1.00306 0.00488439 0)
(1.00388 0.00548064 0)
(1.00053 0.00896435 0)
(1.00131 0.0104426 0)
(1.00457 0.00951989 0)
(1.00684 0.00977512 0)
(1.00597 0.0111918 0)
(1.00599 0.011943 0)
(0.999559 0.00293065 0)
(1.0027 0.00437262 0)
(1.00711 -0.000103189 0)
(1.0017 0.0014533 0)
(0.997812 0.00489733 0)
(1.00278 0.00602805 0)
(1.00484 0.00385239 0)
(1.00114 0.00569758 0)
(1.00306 0.00630929 0)
(1.0068 0.00285978 0)
(1.00246 0.00372629 0)
(1.00013 0.0065607 0)
(1.00299 0.00537421 0)
(1.00439 0.00542233 0)
(1.00127 0.0085236 0)
(1.00146 0.0104246 0)
(1.00448 0.00962869 0)
(1.00713 0.00942468 0)
(1.00646 0.0105575 0)
(1.00613 0.0115497 0)
(0.999658 0.00254259 0)
(1.00237 0.00455116 0)
(1.00679 -1.96508e-05 0)
(1.00188 0.00139191 0)
(0.998006 0.0050818 0)
(1.00265 0.00582059 0)
(1.00483 0.00373838 0)
(1.00135 0.00563974 0)
(1.00284 0.00631847 0)
(1.00659 0.00310551 0)
(1.00289 0.00363377 0)
(1.00037 0.00664336 0)
(1.00289 0.00584706 0)
(1.0048 0.00544748 0)
(1.00204 0.00805344 0)
(1.0017 0.0102867 0)
(1.00435 0.00975035 0)
(1.0073 0.00919839 0)
(1.00695 0.00996192 0)
(1.0064 0.0110482 0)
(0.999752 0.00217957 0)
(1.00204 0.00467158 0)
(1.00644 0.000134089 0)
(1.00206 0.00128063 0)
(0.998199 0.00522083 0)
(1.00249 0.00570797 0)
(1.00482 0.00360101 0)
(1.00158 0.00554479 0)
(1.00263 0.00637199 0)
(1.00635 0.00338473 0)
(1.00332 0.00353917 0)
(1.00069 0.00664174 0)
(1.00278 0.00627397 0)
(1.0051 0.00556369 0)
(1.00281 0.00758796 0)
(1.00206 0.0100129 0)
(1.00421 0.00982867 0)
(1.00733 0.00907475 0)
(1.00737 0.00944845 0)
(1.00677 0.0104798 0)
(0.999839 0.00184549 0)
(1.00172 0.0047301 0)
(1.00606 0.000354387 0)
(1.00225 0.00113716 0)
(0.9984 0.00529237 0)
(1.0023 0.00568396 0)
(1.00479 0.00347521 0)
(1.00183 0.00540303 0)
(1.00245 0.00644124 0)
(1.00608 0.0037073 0)
(1.00373 0.00347549 0)
(1.00108 0.0065505 0)
(1.0027 0.00662849 0)
(1.00527 0.00575466 0)
(1.00353 0.00717185 0)
(1.00251 0.00962097 0)
(1.0041 0.00982825 0)
(1.00725 0.00902808 0)
(1.0077 0.00904515 0)
(1.00719 0.00990258 0)
(0.99992 0.00154432 0)
(1.00142 0.00472157 0)
(1.00564 0.000625443 0)
(1.00244 0.000985023 0)
(0.99862 0.00527635 0)
(1.00208 0.00574418 0)
(1.00475 0.00338634 0)
(1.00211 0.00520545 0)
(1.00231 0.00648766 0)
(1.00578 0.00407028 0)
(1.0041 0.00346951 0)
(1.00153 0.00637491 0)
(1.00265 0.00688268 0)
(1.00535 0.00599147 0)
(1.00418 0.00684157 0)
(1.00304 0.00915033 0)
(1.00407 0.0097268 0)
(1.00709 0.00902173 0)
(1.00791 0.00875567 0)
(1.0076 0.00937996 0)
(0.999993 0.001279 0)
(1.00113 0.00464194 0)
(1.0052 0.000942304 0)
(1.00261 0.000849477 0)
(0.998867 0.00515696 0)
(1.00185 0.00585863 0)
(1.00467 0.00336899 0)
(1.0024 0.00496306 0)
(1.00222 0.00648488 0)
(1.00545 0.00445768 0)
(1.0044 0.00353755 0)
(1.00203 0.00613818 0)
(1.00266 0.00701707 0)
(1.00533 0.00624364 0)
(1.00473 0.00661 0)
(1.00363 0.00864357 0)
(1.00413 0.00951921 0)
(1.0069 0.00901164 0)
(1.008 0.00855347 0)
(1.00794 0.00894665 0)
(1.00006 0.0010517 0)
(1.00088 0.0044927 0)
(1.00473 0.0012846 0)
(1.00276 0.000757227 0)
(0.999147 0.00494137 0)
(1.00163 0.00598286 0)
(1.00455 0.00344479 0)
(1.0027 0.00471134 0)
(1.00219 0.00641513 0)
(1.00512 0.00483054 0)
(1.00462 0.00367828 0)
(1.00254 0.00588644 0)
(1.00274 0.00703875 0)
(1.00527 0.00648102 0)
(1.00515 0.00647711 0)
(1.00422 0.00814684 0)
(1.00429 0.00921524 0)
(1.00671 0.00896652 0)
(1.00799 0.00840803 0)
(1.0082 0.00859638 0)
(1.00012 0.000863373 0)
(1.00066 0.00427976 0)
(1.00426 0.00162909 0)
(1.00287 0.000728043 0)
(0.999459 0.00465137 0)
(1.00142 0.00607931 0)
(1.00438 0.00360677 0)
(1.00299 0.00449113 0)
(1.00223 0.00628295 0)
(1.00479 0.00516312 0)
(1.00477 0.00387856 0)
(1.00304 0.00565398 0)
(1.0029 0.00696232 0)
(1.00519 0.00667233 0)
(1.00545 0.00643518 0)
(1.00479 0.00770929 0)
(1.00455 0.00882926 0)
(1.00656 0.00885843 0)
(1.00791 0.00829467 0)
(1.00838 0.00830804 0)
(1.00017 0.000709215 0)
(1.00047 0.0040247 0)
(1.00378 0.00195452 0)
(1.00293 0.00077561 0)
(0.999798 0.00431024 0)
(1.00125 0.00612445 0)
(1.00417 0.00383436 0)
(1.00325 0.0043189 0)
(1.00233 0.00609398 0)
(1.0045 0.00543589 0)
(1.00484 0.0041183 0)
(1.00351 0.00546158 0)
(1.00313 0.00681136 0)
(1.00511 0.00680093 0)
(1.00565 0.00645209 0)
(1.00529 0.00735941 0)
(1.00488 0.00839317 0)
(1.00648 0.00866653 0)
(1.00779 0.00819438 0)
(1.00847 0.00807028 0)
(1.00021 0.000588605 0)
(1.00031 0.00373548 0)
(1.00332 0.00224203 0)
(1.00295 0.000902094 0)
(1.00015 0.00395032 0)
(1.00113 0.00608565 0)
(1.00393 0.00408818 0)
(1.00346 0.00421807 0)
(1.00248 0.00586584 0)
(1.00425 0.00563952 0)
(1.00484 0.0043792 0)
(1.00392 0.0053274 0)
(1.00341 0.00661131 0)
(1.00507 0.00685286 0)
(1.00576 0.006487 0)
(1.0057 0.00709604 0)
(1.00525 0.00796659 0)
(1.00649 0.0083934 0)
(1.00765 0.00807535 0)
(1.00848 0.00787449 0)
(1.00024 0.000499304 0)
(1.0002 0.00342595 0)
(1.00289 0.00247468 0)
(1.00291 0.00109169 0)
(1.00051 0.00360432 0)
(1.00108 0.00596174 0)
(1.00368 0.00433607 0)
(1.00362 0.00419853 0)
(1.00267 0.00562663 0)
(1.00405 0.0057626 0)
(1.0048 0.00463558 0)
(1.00427 0.00524627 0)
(1.00372 0.00638298 0)
(1.00507 0.00682702 0)
(1.00582 0.00652106 0)
(1.00602 0.00690436 0)
(1.00561 0.00759005 0)
(1.00657 0.00806878 0)
(1.00755 0.00789928 0)
(1.00843 0.00770774 0)
(1.00027 0.000434463 0)
(1.00011 0.00311255 0)
(1.00248 0.00264821 0)
(1.00284 0.00132315 0)
(1.00085 0.00329404 0)
(1.00108 0.00577199 0)
(1.00343 0.00455298 0)
(1.00372 0.00423479 0)
(1.00287 0.00540688 0)
(1.00391 0.00581 0)
(1.00472 0.00486159 0)
(1.00455 0.00521248 0)
(1.00405 0.00615142 0)
(1.00513 0.00673372 0)
(1.00586 0.00652965 0)
(1.00626 0.0067624 0)
(1.00593 0.00726591 0)
(1.00669 0.00773772 0)
(1.00749 0.00766359 0)
(1.00836 0.00754052 0)
(1.00029 0.000391128 0)
(1.00005 0.00280518 0)
(1.00212 0.00275507 0)
(1.00272 0.00158601 0)
(1.00117 0.00304289 0)
(1.00115 0.00553423 0)
(1.00321 0.00471242 0)
(1.00378 0.00430589 0)
(1.00309 0.00520641 0)
(1.00383 0.00580231 0)
(1.00462 0.00505056 0)
(1.00475 0.00522043 0)
(1.00437 0.00593314 0)
(1.00524 0.00658298 0)
(1.00589 0.00649291 0)
(1.00643 0.00665273 0)
(1.00621 0.00699002 0)
(1.00683 0.00742708 0)
(1.00749 0.00739789 0)
(1.0083 0.00733431 0)
(1.0003 0.000361921 0)
(1.00002 0.00253108 0)
(1.00181 0.00279262 0)
(1.00258 0.00185952 0)
(1.00146 0.00287016 0)
(1.00126 0.00526081 0)
(1.00302 0.00480001 0)
(1.00379 0.00438936 0)
(1.00329 0.00502323 0)
(1.00381 0.00573875 0)
(1.00453 0.00519555 0)
(1.00489 0.00524765 0)
(1.00465 0.00574356 0)
(1.00538 0.00639301 0)
(1.00594 0.00640556 0)
(1.00655 0.00654859 0)
(1.00645 0.0067548 0)
(1.00698 0.00714162 0)
(1.0075 0.00714484 0)
(1.00826 0.00709314 0)
(1.00031 0.000342401 0)
(1.00001 0.00229363 0)
(1.00155 0.00279347 0)
(1.00242 0.00211341 0)
(1.0017 0.00277543 0)
(1.00141 0.00497607 0)
(1.00286 0.00482044 0)
(1.00376 0.00446177 0)
(1.00347 0.0048627 0)
(1.00383 0.00562666 0)
(1.00445 0.00528825 0)
(1.00496 0.00528464 0)
(1.0049 0.00558741 0)
(1.00555 0.00618156 0)
(1.00602 0.0062729 0)
(1.00665 0.00642681 0)
(1.00665 0.00654784 0)
(1.00713 0.00687062 0)
(1.00752 0.00691096 0)
(1.00824 0.00684351 0)
(1.00032 0.00033038 0)
(1.00001 0.00209526 0)
(1.00134 0.00276308 0)
(1.00226 0.00234244 0)
(1.00189 0.002729 0)
(1.00157 0.0046995 0)
(1.00275 0.00478722 0)
(1.00371 0.00451546 0)
(1.00363 0.00471599 0)
(1.00389 0.00548327 0)
(1.00439 0.00532411 0)
(1.005 0.00532766 0)
(1.00509 0.00546374 0)
(1.00572 0.00596946 0)
(1.00612 0.00610061 0)
(1.00674 0.00628206 0)
(1.0068 0.00635627 0)
(1.00727 0.00660442 0)
(1.00755 0.00667703 0)
(1.00821 0.00661462 0)
(1.00031 0.000324276 0)
(1.00002 0.00193113 0)
(1.00117 0.0027033 0)
(1.00209 0.00253407 0)
(1.00204 0.00271135 0)
(1.00175 0.00443946 0)
(1.00268 0.00470356 0)
(1.00363 0.00455621 0)
(1.00375 0.00458955 0)
(1.00398 0.00531886 0)
(1.00437 0.00530562 0)
(1.005 0.0053573 0)
(1.00523 0.00537057 0)
(1.00587 0.00577002 0)
(1.00623 0.00589842 0)
(1.00682 0.00610928 0)
(1.00692 0.00617195 0)
(1.00739 0.00635092 0)
(1.00759 0.00643179 0)
(1.00817 0.00641085 0)
(1.00031 0.000321967 0)
(1.00004 0.00179344 0)
(1.00103 0.0026236 0)
(1.00193 0.0026807 0)
(1.00215 0.00272064 0)
(1.00192 0.00420541 0)
(1.00264 0.00458189 0)
(1.00355 0.00458199 0)
(1.00384 0.00449264 0)
(1.00408 0.00513822 0)
(1.00438 0.00523488 0)
(1.00498 0.00535463 0)
(1.00531 0.00530225 0)
(1.00598 0.00559145 0)
(1.00634 0.00568634 0)
(1.00691 0.00589999 0)
(1.00701 0.00597869 0)
(1.00749 0.00611771 0)
(1.00765 0.00617076 0)
(1.00813 0.00620095 0)
(1.00031 0.000317401 0)
(1.00006 0.00168604 0)
(1.00093 0.00253049 0)
(1.00178 0.00278951 0)
(1.00221 0.00274479 0)
(1.00208 0.00399814 0)
(1.00264 0.00443554 0)
(1.00346 0.00457754 0)
(1.00388 0.00442046 0)
(1.00418 0.00495288 0)
(1.00442 0.00511224 0)
(1.00496 0.00530982 0)
(1.00534 0.00523972 0)
(1.00605 0.00543879 0)
(1.00643 0.0054881 0)
(1.00701 0.00566633 0)
(1.00711 0.00575931 0)
(1.00755 0.00589903 0)
(1.00771 0.00591045 0)
(1.00811 0.0059686 0)
(1.0003 0.000315512 0)
(1.00007 0.00159354 0)
(1.00086 0.0024302 0)
(1.00165 0.00285655 0)
(1.00224 0.00277368 0)
(1.00221 0.00381963 0)
(1.00266 0.0042732 0)
(1.00338 0.00454312 0)
(1.00389 0.00436623 0)
(1.00427 0.00479294 0)
(1.00448 0.00494915 0)
(1.00496 0.00521959 0)
(1.00535 0.0051603 0)
(1.00608 0.00529784 0)
(1.00648 0.00530728 0)
(1.00708 0.00543767 0)
(1.00721 0.00550498 0)
(1.00761 0.00566792 0)
(1.00775 0.00565762 0)
(1.0081 0.00571216 0)
(1.00029 0.000310113 0)
(1.00009 0.00152154 0)
(1.00081 0.00232492 0)
(1.00153 0.0028899 0)
(1.00224 0.00280204 0)
(1.00233 0.00366733 0)