/*--------------------------------*- C++ -*----------------------------------*\
| =========                 |                                                 |
| \\      /  F ield         | OpenFOAM: The Open Source CFD Toolbox           |
|  \\    /   O peration     | Version:  2506                                  |
|   \\  /    A nd           | Website:  www.openfoam.com                      |
|    \\/     M anipulation  |                                                 |
\*---------------------------------------------------------------------------*/
FoamFile
{
    version     2.0;
    format      ascii;
    arch        "LSB;label=32;scalar=64";
    class       volScalarField;
    location    "4.55";
    object      p;
}
// * * * * * * * * * * * * * * * * * * * * * * * * * * * * * * * * * * * * * //

dimensions      [0 2 -2 0 0 0 0];

internalField   nonuniform List<scalar> 
9600
(
9.88537e-11
0.00431515
0.00318783
0.00610533
0.0104317
0.0128205
0.00751086
0.0113218
0.0107505
0.00939132
0.0101241
0.0112556
0.011297
0.0114092
0.0124073
0.0123372
0.0132824
0.0156756
0.0176703
0.0229882
8.46992e-06
0.00426049
0.00319288
0.00617539
0.0104087
0.0127532
0.00754564
0.0113094
0.0107475
0.00941181
0.0101235
0.0112506
0.011306
0.0114157
0.0123988
0.0123341
0.013287
0.015644
0.01773
0.0224133
7.08117e-06
0.00419
0.00321379
0.00624268
0.0103552
0.0126803
0.00757634
0.0112867
0.010756
0.00945333
0.0101144
0.0112474
0.011319
0.0114217
0.0123847
0.0123378
0.0132856
0.0156163
0.0177323
0.0218577
-2.46605e-06
0.00412589
0.00325218
0.00628878
0.0102856
0.0126037
0.00760735
0.0112602
0.0107799
0.00949538
0.0100969
0.0112446
0.0113281
0.0114319
0.0123676
0.0123443
0.0132812
0.0155767
0.0177146
0.0213348
-1.67326e-05
0.00407617
0.00330981
0.00631127
0.0102039
0.0125252
0.00764561
0.0112259
0.0108138
0.00952915
0.01007
0.0112381
0.011335
0.0114437
0.012348
0.0123496
0.0132762
0.0155329
0.0176702
0.0208404
-3.25424e-05
0.00405008
0.00338737
0.00630519
0.0101152
0.0124518
0.00769551
0.0111787
0.0108534
0.00955305
0.0100341
0.0112282
0.0113417
0.0114536
0.0123285
0.0123535
0.0132725
0.0154834
0.0176113
0.0203685
-4.52783e-05
0.00405405
0.00347958
0.00627192
0.0100291
0.0123874
0.00775723
0.0111172
0.010897
0.00956903
0.00999228
0.0112164
0.0113489
0.0114619
0.0123112
0.0123559
0.0132689
0.01543
0.0175303
0.0199171
-4.99653e-05
0.0040867
0.00357654
0.00621873
0.00995424
0.0123313
0.00782708
0.0110449
0.010945
0.00958134
0.00994829
0.0112037
0.0113576
0.0114694
0.0122955
0.0123559
0.0132635
0.0153719
0.0174273
0.0194854
-4.29877e-05
0.00414123
0.0036683
0.0061564
0.00989441
0.0122802
0.00789948
0.0109668
0.0109971
0.00959354
0.00990355
0.0111903
0.011368
0.0114755
0.0122799
0.012353
0.013254
0.0153091
0.017303
0.0190697
-2.30342e-05
0.00420975
0.00374931
0.00609463
0.00984858
0.0122312
0.0079693
0.0108862
0.0110519
0.00960692
0.0098582
0.011176
0.0113794
0.0114797
0.0122635
0.0123466
0.0132386
0.0152415
0.0171587
0.0186653
8.96197e-06
0.00428626
0.00381947
0.00603903
0.00981314
0.0121822
0.00803356
0.010805
0.0111071
0.00962156
0.00981226
0.0111605
0.0113915
0.011482
0.0122454
0.012337
0.013216
0.0151685
0.016996
0.0182684
5.08279e-05
0.00436706
0.00388201
0.00599079
0.00978399
0.012132
0.00809162
0.010724
0.0111609
0.0096374
0.00976583
0.0111435
0.0114043
0.0114828
0.0122247
0.0123247
0.0131856
0.0150889
0.0168178
0.0178772
0.000100368
0.0044498
0.00394062
0.00594831
0.00975764
0.0120795
0.00814423
0.0106433
0.0112121
0.00965448
0.00971891
0.011125
0.0114177
0.0114823
0.0122008
0.0123099
0.0131469
0.0150015
0.0166277
0.0174913
0.000156046
0.00453282
0.00399794
0.00590909
0.00973181
0.0120238
0.0081926
0.0105627
0.0112601
0.00967289
0.00967135
0.0111051
0.0114311
0.011481
0.0121737
0.0122926
0.0131003
0.0149048
0.0164285
0.0171107
0.00021705
0.00461482
0.00405544
0.00587108
0.00970522
0.0119641
0.00823794
0.0104824
0.011305
0.00969274
0.00962293
0.0110836
0.0114443
0.0114794
0.0121429
0.0122719
0.0130469
0.0147979
0.016221
0.0167349
0.000283039
0.00469496
0.00411385
0.00583316
0.00967727
0.0119003
0.00828124
0.0104028
0.0113465
0.00971423
0.00957342
0.0110607
0.011457
0.0114774
0.0121085
0.012247
0.0129877
0.0146804
0.016005
0.016365
0.000353885
0.00477271
0.00417361
0.00579491
0.00964776
0.0118327
0.00832309
0.0103242
0.0113847
0.00973753
0.00952258
0.0110364
0.0114691
0.0114746
0.0120711
0.0122166
0.0129228
0.0145524
0.0157812
0.0160021
0.000429521
0.00484781
0.00423512
0.0057564
0.00961663
0.0117618
0.00836374
0.0102468
0.0114191
0.00976281
0.0094702
0.0110109
0.0114805
0.0114703
0.0120316
0.0121798
0.012851
0.0144151
0.0155505
0.0156466
0.000509918
0.00492012
0.00429881
0.00571794
0.00958375
0.0116882
0.00840319
0.0101708
0.0114492
0.00979023
0.00941621
0.0109843
0.0114917
0.0114636
0.0119904
0.0121362
0.0127712
0.01427
0.0153139
0.0152978
0.000595073
0.00498957
0.00436496
0.00567998
0.00954895
0.0116123
0.00844135
0.0100965
0.0114745
0.00981993
0.00936057
0.0109562
0.0115032
0.0114533
0.0119475
0.0120862
0.0126827
0.014118
0.0150725
0.0149553
0.000684997
0.00505612
0.00443377
0.00564292
0.00951201
0.0115346
0.00847804
0.0100239
0.0114946
0.00985203
0.00930341
0.0109261
0.0115157
0.0114388
0.011902
0.0120305
0.0125848
0.013959
0.0148273
0.0146189
0.000779709
0.00511975
0.00450537
0.00560724
0.00947264
0.0114555
0.00851307
0.00995332
0.0115092
0.00988648
0.00924506
0.0108934
0.0115297
0.0114195
0.0118528
0.0119702
0.012477
0.0137927
0.0145801
0.0142874
0.000879233
0.00518044
0.00457981
0.00557337
0.00943044
0.0113755
0.00854633
0.0098848
0.011518
0.00992305
0.00918602
0.0108574
0.0115456
0.0113956
0.0117985
0.0119062
0.0123589
0.0136193
0.0143334
0.0139588
0.000983589
0.00523821
0.00465701
0.00554181
0.00938496
0.0112948
0.00857774
0.00981826
0.0115211
0.00996133
0.00912673
0.0108173
0.0115638
0.0113678
0.0117374
0.0118386
0.0122311
0.0134383
0.0140903
0.0136313
0.00109277
0.00529307
0.00473679
0.00551303
0.00933573
0.0112138
0.00860732
0.00975351
0.0115186
0.0100008
0.00906751
0.0107723
0.0115842
0.0113369
0.0116678
0.0117675
0.0120946
0.0132485
0.0138541
0.0133065
0.00120675
0.00534511
0.0048189
0.00548757
0.00928237
0.0111328
0.00863515
0.00969019
0.0115107
0.0100412
0.00900862
0.0107216
0.0116066
0.0113039
0.0115882
0.0116934
0.011951
0.0130474
0.0136267
0.0129902
0.00132544
0.00539448
0.00490302
0.00546591
0.00922452
0.0110519
0.00866151
0.00962778
0.0114976
0.0100825
0.00895022
0.0106643
0.011631
0.0112695
0.0114975
0.0116164
0.0118024
0.0128316
0.0134073
0.0126934
0.00144872
0.00544143
0.00498879
0.00544853
0.00916192
0.010971
0.00868683
0.00956567
0.0114791
0.0101249
0.0088923
0.0105997
0.0116571
0.0112347
0.0113943
0.011536
0.0116523
0.0125981
0.0131904
0.0124283
0.00157637
0.00548632
0.00507583
0.00543597
0.00909442
0.0108902
0.00871177
0.00950334
0.0114548
0.0101686
0.00883496
0.0105266
0.0116845
0.0112011
0.0112775
0.0114508
0.0115058
0.0123471
0.0129651
0.0122023
0.00170817
0.00552961
0.00516373
0.00542861
0.009022
0.0108089
0.0087372
0.00944046
0.0114238
0.0102138
0.00877861
0.0104436
0.0117125
0.011171
0.011146
0.0113583
0.0113682
0.0120836
0.0127186
0.0120109
0.00184377
0.00557185
0.0052522
0.00542674
0.00894483
0.0107267
0.00876402
0.00937725
0.011385
0.0102607
0.00872402
0.0103486
0.0117395
0.0111475
0.0109998
0.0112542
0.0112425
0.0118178
0.0124429
0.011836
0.00198279
0.00561359
0.00534104
0.00543053
0.00886335
0.0106426
0.0087928
0.00931429
0.0113371
0.0103092
0.00867283
0.0102402
0.011763
0.0111333
0.01084
0.0111338
0.0111279
0.0115597
0.0121406
0.0116557
0.0021248
0.0056555
0.00542998
0.00543993
0.00877851
0.0105555
0.00882347
0.00925271
0.0112788
0.0103585
0.00862745
0.0101175
0.0117794
0.0111302
0.010669
0.0109941
0.0110227
0.0113155
0.0118204
0.0114543
0.00226935
0.0056982
0.00551879
0.0054547
0.00869156
0.0104647
0.00885565
0.00919401
0.0112087
0.010407
0.00859036
0.00998016
0.0117842
0.0111398
0.0104896
0.0108321
0.0109266
0.0110891
0.01149
0.0112253
0.00241598
0.00574215
0.00560765
0.00547447
0.00860383
0.0103697
0.00888825
0.00913976
0.0111265
0.0104523
0.0085638
0.00982894
0.0117725
0.0111634
0.0103063
0.0106432
0.0108387
0.0108877
0.0111537
0.0109661
0.00256425
0.00578771
0.00569712
0.00549846
0.00851652
0.010271
0.00891966
0.00909133
0.0110326
0.0104916
0.00854945
0.00966623
0.0117389
0.0112007
0.0101259
0.0104218
0.0107523
0.010722
0.010819
0.0106723
0.00271372
0.00583503
0.00578808
0.00552577
0.00843012
0.0101689
0.00894809
0.00904971
0.0109284
0.0105219
0.00854799
0.00949551
0.0116781
0.0112488
0.00995749
0.0101655
0.0106542
0.0105997
0.0105034
0.0103417
0.00286411
0.00588377
0.00588179
0.00555584
0.00834527
0.0100644
0.00897125
0.00901462
0.0108165
0.0105408
0.00855867
0.0093205
0.011586
0.0113031
0.00981109
0.00987793
0.0105279
0.010518
0.0102292
0.00998411
0.00301532
0.00593328
0.00597975
0.00558836
0.00826158
0.00995944
0.00898728
0.00898474
0.0106996
0.0105467
0.00857934
0.0091449
0.0114606
0.0113576
0.00969589
0.00956754
0.0103592
0.0104631
0.0100141
0.00962358
0.00316729
0.00598262
0.00608372
0.00562343
0.00817678
0.00985668
0.00899591
0.00895781
0.0105802
0.0105394
0.00860763
0.00897167
0.0113013
0.0114047
0.00961832
0.00924606
0.0101389
0.0104165
0.00986548
0.00928942
0.00332017
0.0060305
0.00619506
0.00566203
0.00808801
0.00975827
0.00899842
0.00893013
0.010459
0.0105201
0.00864175
0.00880307
0.0111077
0.0114354
0.00958232
0.00892843
0.0098623
0.0103581
0.00978115
0.009007
0.00347442
0.00607557
0.00631359
0.00570604
0.00799297
0.0096648
0.00899706
0.00889879
0.0103354
0.0104897
0.00868089
0.00864148
0.0108811
0.0114397
0.00958848
0.00863404
0.00953035
0.0102646
0.0097508
0.008796
0.00363047
0.00611685
0.00643866
0.00575825
0.00788995
0.00957474
0.00899512
0.00886215
0.0102078
0.0104488
0.00872531
0.00849047
0.0106241
0.011407
0.00963051
0.00838437
0.00915445
0.0101112
0.00975347
0.00866996
0.0037889
0.00615333
0.00656898
0.00582278
0.00777817
0.00948547
0.00899618
0.00882004
0.010073
0.0103968
0.00877593
0.00835478
0.0103413
0.0113281
0.00969476
0.00819693
0.00875908
0.00988097
0.00975755
0.00862992
0.00395048
0.00618433
0.00670387
0.00590447
0.00765786
0.00939065
0.00900539
0.00877564
0.00992716
0.0103304
0.00883285
0.00823978
0.0100398
0.0111969
0.00976476
0.00807804
0.00837286
0.00957576
0.00972687
0.00865754
0.00411582
0.00620967
0.00683057
0.0060071
0.00753162
0.00928394
0.00902527
0.00873342
0.00976705
0.0102449
0.00889404
0.00815163
0.00972902
0.011011
0.00982401
0.00802309
0.00802093
0.00921367
0.00963387
0.00872036
0.00428548
0.00622952
0.00694916
0.00613252
0.00740138
0.00915824
0.00905276
0.00870202
0.00959531
0.0101347
0.00895356
0.00809584
0.00942033
0.0107718
0.00985605
0.00802168
0.00772198
0.00881868
0.00946728
0.00878147
0.00445984
0.00624475
0.00705591
0.00628054
0.00727751
0.0090087
0.00908251
0.00869043
0.00941869
0.00999434
0.00900237
0.00807399
0.00912765
0.0104881
0.0098453
0.00805831
0.00748895
0.00841566
0.00922932
0.00880891
0.00463875
0.0062565
0.00714744
0.00644892
0.00717156
0.00883371
0.00910456
0.00870236
0.0092455
0.00982428
0.00903024
0.0080808
0.00886496
0.0101755
0.00978265
0.0081109
0.00732527
0.00803054
0.00893125
0.00878252
0.00482156
0.00626744
0.0072215
0.00663195
0.0070888
0.0086356
0.00910409
0.00873674
0.00908912
0.00963149
0.00902657
0.00810535
0.00864099
0.00985085
0.00967004
0.00815738
0.00722082
0.00768583
0.00859214
0.00869294
0.00500743
0.00628281
0.0072761
0.00682074
0.00703811
0.00841966
0.00906556
0.00878665
0.00896351
0.00942602
0.00898449
0.00813588
0.00845781
0.009529
0.0095155
0.00818521
0.00715929
0.00739397
0.00823599
0.00853801
0.00519559
0.00630528
0.00731
0.00700508
0.00702523
0.0081949
0.00897962
0.00884125
0.00887703
0.0092214
0.00890416
0.0081585
0.00831181
0.00922172
0.00932642
0.00818917
0.0071269
0.00715687
0.00788725
0.00832413
0.00538494
0.00633754
0.00732275
0.0071754
0.00705175
0.00797634
0.00884526
0.00888256
0.00882897
0.00903487
0.00879388
0.00815936
0.00819475
0.00893904
0.00911218
0.00816389
0.00711233
0.00697074
0.00756698
0.00807053
0.00557354
0.00638144
0.00731631
0.00732569
0.00711571
0.00778137
0.00866902
0.00888991
0.00881138
0.00888053
0.00866541
0.0081325
0.00809485
0.0086854
0.00888629
0.00810653
0.00710266
0.00682735
0.00728737
0.00780497
0.0057592
0.00643757
0.00729583
0.00744372
0.00721311
0.00762539
0.00846194
0.00884999
0.00881246
0.0087638
0.00853235
0.00808062
0.00800117
0.00845771
0.00865963
0.00802222
0.00708795
0.00671584
0.00704827
0.00755002
0.00593982
0.00650544
0.00724744
0.00752671
0.0073221
0.00751675
0.00824274
0.00875932
0.00881211
0.00868235
0.00840862
0.00800961
0.00790813
0.00825111
0.00843607
0.00791838
0.00706555
0.00662775
0.00684242
0.00731384
0.00611361
0.00658483
0.00722455
0.00757584
0.0074273
0.00745413
0.00803451
0.00862447
0.00878858
0.00862937
0.00830476
0.00792651
0.00781304
0.0080643
0.00821881
0.00779812
0.00703427
0.00655864
0.00666554
0.00709535
0.00627858
0.00667408
0.00720711
0.00759236
0.00751789
0.00743252
0.00785469
0.00845667
0.0087292
0.00859084
0.00822407
0.00784083
0.00771328
0.00789508
0.008015
0.00766521
0.00698978
0.00650291
0.00651723
0.00689452
0.00643282
0.00676891
0.00719998
0.00758438
0.00758677
0.00744168
0.00770985
0.00827205
0.00863239
0.00854979
0.00816408
0.00776229
0.0076109
0.00773725
0.00782895
0.0075298
0.00693037
0.0064514
0.00639399
0.00671309
0.00657597
0.00686609
0.0072044
0.00756093
0.00763079
0.00746814
0.00760115
0.00808841
0.00850369
0.00849405
0.00811839
0.00769502
0.00751203
0.00758681
0.00765577
0.00740096
0.00686413
0.00639918
0.0062896
0.00655147
0.00670826
0.00696168
0.00722004
0.00753002
0.00765008
0.00749834
0.00752542
0.0079193
0.00835105
0.00841732
0.00807889
0.00763989
0.00742049
0.00744584
0.00748987
0.00727693
0.00680156
0.00635134
0.00620122
0.00640929
0.00682969
0.00705318
0.00724577
0.00749704
0.0076469
0.00752316
0.00747769
0.00777246
0.00818699
0.00831853
0.00803797
0.00759779
0.0073385
0.00731644
0.00733314
0.00715114
0.0067407
0.00631334
0.00612967
0.00628739
0.00694052
0.00713851
0.00727904
0.00746715
0.00762507
0.00753761
0.00744909
0.00764964
0.00802389
0.00820083
0.00798837
0.00756769
0.00727056
0.00719826
0.00719021
0.00702658
0.0066732
0.00628112
0.00607371
0.00618549
0.00704113
0.00721651
0.00731594
0.00744281
0.00758934
0.00753844
0.00743128
0.00754972
0.0078702
0.00807108
0.00792578
0.00754307
0.0072208
0.00709386
0.00706046
0.00691268
0.00660186
0.00624938
0.00603194
0.0061025
0.0071316
0.00728594
0.00735453
0.00742474
0.00754504
0.00752408
0.00741766
0.0074716
0.00773109
0.00793669
0.00785131
0.00751731
0.00718843
0.00701055
0.00694165
0.00680906
0.00653458
0.00621799
0.00600453
0.00604014
0.00721201
0.00734681
0.0073897
0.00741232
0.00749705
0.0074957
0.00740231
0.00741082
0.00760896
0.00780367
0.00776871
0.00748886
0.00716856
0.0069541
0.00684179
0.00671203
0.00647292
0.00618869
0.00598894
0.00600059
0.00728214
0.00738921
0.00742033
0.00740334
0.00744826
0.00745569
0.00738165
0.00736267
0.00750557
0.00767733
0.00768036
0.0074572
0.00715616
0.00692117
0.00677243
0.00663072
0.00641826
0.00616413
0.00598159
0.00598187
0.00734254
0.00743184
0.00744305
0.00739585
0.00740028
0.0074056
0.00735247
0.00732274
0.00742197
0.00756477
0.00759057
0.00742216
0.00715105
0.00690638
0.0067338
0.00657723
0.00637737
0.0061483
0.00598202
0.00598028
0.00739228
0.0074639
0.00745738
0.00738787
0.00735445
0.00734827
0.00731302
0.00728458
0.00735356
0.00746944
0.00750784
0.00738671
0.00715583
0.00691245
0.00672241
0.00655642
0.00636102
0.00614841
0.0059946
0.00599417
0.00743041
0.00748204
0.00746332
0.00737626
0.00730998
0.00728603
0.00726357
0.0072447
0.00729496
0.00738919
0.00743718
0.00735527
0.00717031
0.00694528
0.00674336
0.00657113
0.006381
0.00617769
0.00603027
0.00602757
0.00745799
0.00749733
0.00745769
0.00735698
0.00726522
0.00722044
0.00720252
0.00719915
0.0072434
0.00732231
0.00738085
0.0073338
0.00719401
0.00700653
0.00680692
0.00662917
0.00644764
0.00625186
0.00610555
0.00609398
0.00747219
0.00749784
0.0074435
0.00733121
0.00721874
0.0071533
0.00713157
0.00714023
0.00719045
0.00726456
0.00733792
0.00733004
0.00723594
0.00709773
0.00692327
0.00674471
0.00657122
0.00638361
0.0062346
0.00620984
0.0074701
0.00748635
0.00742088
0.00729767
0.00716785
0.00708326
0.00705457
0.0070669
0.00712165
0.0072031
0.00729901
0.00734525
0.00731544
0.00724023
0.00711777
0.00694649
0.00676545
0.00657652
0.00642008
0.00637766
0.00745893
0.00746742
0.00738453
0.00725107
0.0071113
0.00700955
0.00697113
0.00698082
0.00702697
0.00710472
0.00722902
0.0073576
0.00745045
0.00749926
0.00749786
0.00740517
0.00723915
0.00702037
0.00677543
0.00659305
0.00743213
0.00743179
0.00733451
0.00719446
0.00705113
0.00693731
0.00688311
0.00688653
0.00691644
0.00694535
0.00699662
0.00711286
0.00734733
0.00759836
0.00778702
0.00789857
0.00799331
0.00814189
0.00832198
0.0084607
0.00738601
0.00737725
0.00727132
0.00712675
0.00698978
0.00687866
0.0068145
0.00679128
0.00684308
0.00702144
0.00729349
0.00754168
0.00773299
0.00786856
0.00798197
0.00810198
0.00820829
0.0082984
0.00835654
0.0083273
0.00731701
0.00730887
0.00719061
0.00703504
0.00687983
0.00676819
0.00678242
0.0069313
0.00712697
0.00729459
0.00743042
0.00751267
0.00758773
0.00767682
0.00778067
0.0079348
0.0081384
0.00838024
0.00861355
0.00875373
0.00720827
0.00723147
0.00716932
0.00708504
0.00701541
0.00697407
0.00698514
0.00705325
0.00715863
0.00727045
0.00740866
0.00754416
0.00766999
0.00778986
0.00784844
0.00781344
0.00766541
0.00739824
0.00706605
0.00674646
0.00704084
0.00704615
0.00708381
0.00711184
0.00709219
0.00704251
0.00701557
0.00703054
0.00710987
0.00720971
0.00733219
0.00747694
0.00760422
0.0077463
0.00792911
0.00813581
0.0083778
0.00862072
0.00881868
0.00888542
0.00694426
0.00696888
0.00704066
0.00710406
0.0071073
0.00707137
0.00704843
0.00706071
0.00713003
0.00723012
0.00734773
0.00750459
0.00767122
0.00783614
0.00802334
0.0081975
0.0083426
0.0084342
0.00845071
0.00833904
0.0251886
0.0186207
0.0104485
0.00454408
0.00284556
0.00353798
0.00448177
0.00506946
0.00537775
0.00557316
0.00568155
0.00570211
0.00578121
0.00600326
0.00617635
0.00614628
0.00600572
0.00590446
0.00597877
0.00624058
0.00648576
0.00659281
0.00667402
0.00681119
0.00693989
0.00702381
0.00710471
0.00718882
0.00723938
0.00726818
0.00731424
0.00738306
0.00745773
0.00756174
0.00771062
0.00786563
0.00798341
0.00808801
0.0082061
0.00829816
0.00835986
0.00845172
0.00855608
0.008613
0.00863613
0.00868289
0.00875722
0.00882001
0.00887913
0.00898854
0.00913469
0.00925348
0.00936618
0.00953439
0.00972272
0.00985727
0.00991855
0.00995094
0.0100203
0.0101684
0.0103411
0.0105039
0.0106458
0.0107666
0.0108908
0.0110339
0.0111691
0.011301
0.0114629
0.0116201
0.0117852
0.0119575
0.0121469
0.0123168
0.0124991
0.012684
0.0128947
0.0131069
0.0133255
0.0135546
0.0137891
0.0140312
0.0142482
0.0144781
0.0147004
0.0149642
0.0152178
0.0154813
0.0157311
0.0159799
0.0162496
0.0165133
0.0167886
0.017084
0.0173501
0.0176647
0.0179216
0.0181835
0.0184372
0.0185184
0.024401
0.0184679
0.0105321
0.00469324
0.00293637
0.00358144
0.0045088
0.00508793
0.00539066
0.00558292
0.00568948
0.00570849
0.00578642
0.00600813
0.00618126
0.00615081
0.00600958
0.00590758
0.00598128
0.00624295
0.00648819
0.00659499
0.00667585
0.00681285
0.00694144
0.00702519
0.00710598
0.00719004
0.00724057
0.00726929
0.00731529
0.00738408
0.00745872
0.00756268
0.00771155
0.00786658
0.00798434
0.00808887
0.00820694
0.008299
0.00836064
0.00845243
0.0085568
0.00861371
0.0086368
0.0086835
0.00875781
0.00882059
0.00887966
0.00898902
0.00913517
0.00925394
0.00936659
0.00953476
0.0097231
0.00985768
0.00991895
0.00995129
0.0100206
0.0101686
0.0103414
0.0105042
0.010646
0.0107669
0.010891
0.0110342
0.0111693
0.0113012
0.0114631
0.0116203
0.0117854
0.0119577
0.0121471
0.012317
0.0124993
0.0126842
0.0128948
0.013107
0.0133256
0.0135547
0.0137893
0.0140313
0.0142484
0.0144783
0.0147005
0.0149643
0.0152179
0.0154814
0.0157312
0.01598
0.0162497
0.0165134
0.0167887
0.0170841
0.0173502
0.0176648
0.0179217
0.0181836
0.0184373
0.0185185
0.0236837
0.0183189
0.0106985
0.00496213
0.00308797
0.00363492
0.0045355
0.00510988
0.00540866
0.00559668
0.00570004
0.00571671
0.00579276
0.00601329
0.00618576
0.00615487
0.00601332
0.00591082
0.00598395
0.0062454
0.00649057
0.0065971
0.0066777
0.00681457
0.00694299
0.00702651
0.00710716
0.00719118
0.00724161
0.00727023
0.00731617
0.00738494
0.00745951
0.00756343
0.00771235
0.00786743
0.00798516
0.00808961
0.00820769
0.00829975
0.00836131
0.00845306
0.00855745
0.00861435
0.00863736
0.00868402
0.00875832
0.00882107
0.00888009
0.00898943
0.00913559
0.00925434
0.00936693
0.00953508
0.00972346
0.00985807
0.0099193
0.00995157
0.0100208
0.0101689
0.0103417
0.0105044
0.0106463
0.0107671
0.0108912
0.0110344
0.0111695
0.0113013
0.0114633
0.0116205
0.0117855
0.0119579
0.0121473
0.0123171
0.0124994
0.0126843
0.012895
0.0131072
0.0133257
0.0135549
0.0137894
0.0140315
0.0142485
0.0144784
0.0147006
0.0149644
0.015218
0.0154815
0.0157313
0.0159801
0.0162498
0.0165135
0.0167888
0.0170842
0.0173503
0.0176649
0.0179218
0.0181836
0.0184374
0.0185185
0.0230025
0.0181622
0.0109077
0.0053004
0.00329545
0.00371007
0.00457389
0.00514392
0.00543764
0.00561795
0.00571551
0.00572922
0.00580299
0.00602077
0.00619093
0.00615926
0.0060182
0.00591592
0.00598824
0.00624861
0.00649322
0.00659967
0.0066803
0.00681702
0.00694508
0.00702824
0.00710868
0.00719255
0.00724279
0.00727124
0.00731708
0.00738575
0.0074602
0.00756409
0.00771312
0.0078683
0.007986
0.00809036
0.00820844
0.00830052
0.00836202
0.00845373
0.00855814
0.00861501
0.00863796
0.00868457
0.00875885
0.00882156
0.00888052
0.00898985
0.00913604
0.00925476
0.00936727
0.00953542
0.00972386
0.0098585
0.00991969
0.00995185
0.010021
0.0101691
0.010342
0.0105047
0.0106465
0.0107673
0.0108914
0.0110346
0.0111697
0.0113015
0.0114635
0.0116206
0.0117857
0.011958
0.0121474
0.0123173
0.0124996
0.0126845
0.0128951
0.0131073
0.0133259
0.013555
0.0137895
0.0140316
0.0142486
0.0144785
0.0147007
0.0149645
0.0152181
0.0154816
0.0157314
0.0159802
0.0162499
0.0165136
0.0167889
0.0170843
0.0173504
0.017665
0.0179219
0.0181837
0.0184376
0.0185185
0.0223263
0.0179832
0.0111257
0.00566042
0.00352653
0.00379615
0.00461857
0.00518744
0.00547732
0.00564752
0.00573686
0.00574721
0.00581856
0.00603185
0.0061975
0.00616447
0.00602506
0.00592429
0.00599552
0.00625321
0.00649621
0.00660284
0.00668402
0.00682057
0.00694804
0.00703079
0.00711099
0.00719456
0.00724443
0.00727261
0.00731822
0.00738663
0.00746084
0.00756466
0.00771383
0.00786917
0.00798686
0.0080911
0.00820918
0.00830136
0.00836287
0.00845453
0.0085589
0.00861574
0.00863867
0.00868523
0.00875943
0.00882209
0.00888102
0.00899035
0.00913655
0.00925523
0.00936767
0.00953582
0.00972432
0.009859
0.00992014
0.00995216
0.0100213
0.0101694
0.0103423
0.010505
0.0106468
0.0107676
0.0108916
0.0110348
0.0111699
0.0113017
0.0114637
0.0116208
0.0117859
0.0119582
0.0121476
0.0123175
0.0124997
0.0126846
0.0128953
0.0131075
0.013326
0.0135551
0.0137897
0.0140317
0.0142488
0.0144786
0.0147009
0.0149646
0.0152182
0.0154817
0.0157315
0.0159803
0.01625
0.0165137
0.0167889
0.0170844
0.0173504
0.017665
0.017922
0.0181838
0.0184377
0.0185185
0.021656
0.0177807
0.0113368
0.00602365
0.00376871
0.00388678
0.0046635
0.00523443
0.00552323
0.00568268
0.00576236
0.00576924
0.00583839
0.0060461
0.00620565
0.00617086
0.00603427
0.00593646
0.00600644
0.00625962
0.00649964
0.00660664
0.00668891
0.0068252
0.00695181
0.00703417
0.00711423
0.00719748
0.00724693
0.00727475
0.00731992
0.00738778
0.00746151
0.00756513
0.00771444
0.00786999
0.00798768
0.00809174
0.0082098
0.00830221
0.00836389
0.00845547
0.00855972
0.00861659
0.00863958
0.00868606
0.0087601
0.00882268
0.00888162
0.00899095
0.00913712
0.00925575
0.00936815
0.0095363
0.00972485
0.00985957
0.00992066
0.00995253
0.0100215
0.0101697
0.0103427
0.0105054
0.0106472
0.0107679
0.0108919
0.0110351
0.0111702
0.0113019
0.0114639
0.011621
0.0117861
0.0119584
0.0121478
0.0123177
0.0124999
0.0126848
0.0128954
0.0131076
0.0133262
0.0135553
0.0137898
0.0140319
0.0142489
0.0144787
0.014701
0.0149647
0.0152183
0.0154818
0.0157316
0.0159804
0.0162501
0.0165138
0.016789
0.0170845
0.0173505
0.0176651
0.0179221
0.0181839
0.0184379
0.0185185
0.0210002
0.0175564
0.0115324
0.00638384
0.00402072
0.00398286
0.00470806
0.0052826
0.00557297
0.00572169
0.00579058
0.00579357
0.00586057
0.00606229
0.00621501
0.0061784
0.00604557
0.00595192
0.00602067
0.00626791
0.00650372
0.00661109
0.0066948
0.00683065
0.0069561
0.00703808
0.00711816
0.00720119
0.00725038
0.007278
0.00732263
0.00738958
0.00746247
0.00756566
0.00771498
0.00787075
0.00798844
0.00809219
0.00821014
0.00830297
0.00836506
0.00845654
0.00856057
0.00861757
0.00864079
0.00868717
0.00876091
0.00882338
0.00888238
0.00899168
0.00913772
0.0092563
0.00936872
0.00953687
0.00972544
0.00986023
0.00992129
0.00995296
0.0100218
0.0101701
0.0103431
0.0105058
0.0106476
0.0107683
0.0108923
0.0110354
0.0111705
0.0113022
0.0114641
0.0116212
0.0117863
0.0119586
0.012148
0.0123178
0.0125001
0.0126849
0.0128956
0.0131078
0.0133263
0.0135554
0.01379
0.0140321
0.0142491
0.0144789
0.0147011
0.0149648
0.0152185
0.015482
0.0157318
0.0159805
0.0162502
0.0165139
0.0167891
0.0170846
0.0173506
0.0176652
0.0179223
0.018184
0.0184382
0.0185185
0.0203647
0.0173095
0.0117068
0.00673879
0.00428447
0.00408761
0.00475319
0.00533111
0.00562556
0.00576394
0.005821
0.00581936
0.00588412
0.00607974
0.00622533
0.00618684
0.00605827
0.00596952
0.00603722
0.00627778
0.00650859
0.00661618
0.00670142
0.00683665
0.00696067
0.0070422
0.00712232
0.00720523
0.00725446
0.00728229
0.00732654
0.0073924
0.00746408
0.00756648
0.00771561
0.00787155
0.00798923
0.00809244
0.00821009
0.00830349
0.00836627
0.00845766
0.00856135
0.00861863
0.00864235
0.00868863
0.00876192
0.00882429
0.00888343
0.00899262
0.00913837
0.00925687
0.00936936
0.0095375
0.00972607
0.00986097
0.00992204
0.0099535
0.0100222
0.0101705
0.0103437
0.0105064
0.0106481
0.0107687
0.0108927
0.0110358
0.0111708
0.0113025
0.0114644
0.0116215
0.0117865
0.0119588
0.0121482
0.0123181
0.0125003
0.0126851
0.0128957
0.013108
0.0133265
0.0135556
0.0137901
0.0140322
0.0142492
0.014479
0.0147012
0.014965
0.0152186
0.0154821
0.0157319
0.0159806
0.0162504
0.016514
0.0167892
0.0170847
0.0173507
0.0176653
0.0179225
0.0181842
0.0184385
0.0185185
0.0197513
0.0170409
0.0118582
0.00708807
0.00456093
0.00420285
0.00479915
0.00537901
0.0056803
0.00580924
0.00585348
0.00584636
0.00590876
0.00609832
0.00623655
0.00619591
0.00607169
0.00598826
0.00605518
0.00628886
0.00651425
0.00662185
0.00670855
0.006843
0.00696538
0.00704637
0.00712645
0.00720917
0.00725864
0.00728715
0.00733147
0.00739634
0.00746659
0.00756782
0.00771647
0.00787252
0.00799016
0.00809264
0.0082097
0.00830371
0.0083674
0.00845868
0.00856193
0.00861966
0.00864419
0.00869046
0.00876317
0.00882546
0.00888489
0.00899392
0.00913916
0.00925748
0.00937004
0.0095381
0.00972665
0.00986175
0.00992292
0.00995417
0.0100227
0.0101711
0.0103443
0.010507
0.0106487
0.0107693
0.0108932
0.0110363
0.0111713
0.0113029
0.0114648
0.0116219
0.0117869
0.0119591
0.0121485
0.0123183
0.0125005
0.0126853
0.0128959
0.0131082
0.0133267
0.0135558
0.0137903
0.0140324
0.0142494
0.0144792
0.0147014
0.0149651
0.0152188
0.0154823
0.0157321
0.0159807
0.0162505
0.0165141
0.0167893
0.0170848
0.0173509
0.0176654
0.0179227
0.0181844
0.0184387
0.0185185
0.019161
0.0167551
0.0119872
0.00742971
0.00484819
0.00432907
0.00484626
0.00542555
0.00573646
0.00585733
0.00588793
0.00587447
0.00593444
0.00611802
0.00624864
0.00620541
0.00608538
0.00600757
0.00607409
0.00630092
0.00652059
0.00662798
0.00671606
0.00684962
0.00697023
0.00705059
0.00713051
0.00721288
0.0072626
0.00729212
0.00733699
0.00740121
0.00747002
0.0075698
0.00771766
0.0078737
0.00799131
0.00809292
0.00820914
0.00830368
0.00836839
0.00845951
0.0085622
0.00862052
0.00864615
0.00869252
0.0087646
0.00882689
0.00888681
0.00899568
0.00914024
0.00925827
0.00937079
0.00953858
0.009727
0.00986242
0.00992386
0.00995499
0.0100233
0.0101718
0.0103451
0.0105076
0.0106493
0.01077
0.0108939
0.0110369
0.0111719
0.0113035
0.0114654
0.0116223
0.0117873
0.0119595
0.0121489
0.0123186
0.0125008
0.0126856
0.0128962
0.0131084
0.0133269
0.013556
0.0137905
0.0140326
0.0142496
0.0144794
0.0147016
0.0149653
0.015219
0.0154825
0.0157323
0.0159809
0.0162507
0.0165143
0.0167895
0.017085
0.017351
0.0176654
0.017923
0.0181847
0.018439
0.0185185
0.0185952
0.016457
0.0120928
0.00775976
0.00514355
0.0044674
0.0048958
0.00547036
0.00579312
0.00590779
0.00592432
0.00590376
0.00596117
0.00613887
0.00626159
0.00621527
0.00609924
0.00602735
0.00609389
0.00631389
0.00652755
0.0066345
0.00672391
0.00685651
0.00697524
0.00705491
0.00713459
0.00721646
0.00726632
0.00729698
0.00734272
0.00740665
0.00747421
0.0075724
0.00771919
0.00787507
0.00799266
0.00809336
0.00820855
0.00830351
0.00836925
0.00846014
0.00856216
0.00862113
0.00864807
0.00869466
0.00876609
0.00882849
0.00888913
0.00899794
0.00914175
0.00925941
0.00937175
0.00953897
0.00972702
0.00986278
0.00992469
0.00995587
0.0100241
0.0101727
0.010346
0.0105084
0.01065
0.0107708
0.0108947
0.0110376
0.0111726
0.0113043
0.011466
0.0116229
0.0117878
0.01196
0.0121493
0.012319
0.0125012
0.0126859
0.0128964
0.0131086
0.0133271
0.0135562
0.0137907
0.0140329
0.0142498
0.0144796
0.0147017
0.0149655
0.0152192
0.0154826
0.0157325
0.0159811
0.0162508
0.0165145
0.0167896
0.0170851
0.0173512
0.0176655
0.0179233
0.018185
0.0184393
0.0185185
0.018054
0.0161492
0.012173
0.00807484
0.00544544
0.00461961
0.0049494
0.00551304
0.00584926
0.00596032
0.00596289
0.00593445
0.00598905
0.00616088
0.00627545
0.00622556
0.00611338
0.00604774
0.00611464
0.00632778
0.00653513
0.00664142
0.00673211
0.00686369
0.00698045
0.00705935
0.00713874
0.00722001
0.00726995
0.00730174
0.0073485
0.00741241
0.00747895
0.00757555
0.00772105
0.00787659
0.00799417
0.00809397
0.00820804
0.00830331
0.00837003
0.00846062
0.00856187
0.0086215
0.00864988
0.00869675
0.00876752
0.00883011
0.00889168
0.00900058
0.00914368
0.00926102
0.00937309
0.00953939
0.00972669
0.00986266
0.00992518
0.00995664
0.010025
0.0101738
0.010347
0.0105091