/*--------------------------------*- C++ -*----------------------------------*\
| =========                 |                                                 |
| \\      /  F ield         | OpenFOAM: The Open Source CFD Toolbox           |
|  \\    /   O peration     | Version:  2506                                  |
|   \\  /    A nd           | Website:  www.openfoam.com                      |
|    \\/     M anipulation  |                                                 |
\*---------------------------------------------------------------------------*/
FoamFile
{
    version     2.0;
    format      ascii;
    arch        "LSB;label=32;scalar=64";
    class       surfaceScalarField;
    location    "4.55";
    object      phi;
}
// * * * * * * * * * * * * * * * * * * * * * * * * * * * * * * * * * * * * * //

dimensions      [0 3 -1 0 0 0 0];

oriented        oriented;

internalField   nonuniform List<scalar> 
19000
(
1.22082e-06
-1.49256e-07
1.01879e-06
9.27167e-07
1.08688e-06
-1.37483e-06
1.29401e-06
4.92405e-07
1.20852e-06
5.87215e-07
1.08856e-06
2.50591e-07
1.15194e-06
-9.38642e-08
1.12026e-06
1.75925e-07
1.12897e-06
5.06153e-07
1.17524e-06
1.12319e-06
1.161e-06
5.07182e-07
1.17005e-06
6.72424e-07
1.17768e-06
4.84615e-07
1.16927e-06
5.08834e-07
1.15196e-06
2.6979e-07
1.15071e-06
2.47382e-07
1.14854e-06
3.93145e-08
1.14777e-06
2.85906e-08
1.15664e-06
-2.93333e-08
3.51613e-08
1.13365e-06
1.28133e-06
-2.06327e-07
1.07487e-06
1.13363e-06
1.14757e-06
-1.44753e-06
1.35961e-06
2.80369e-07
1.27434e-06
6.72483e-07
1.14999e-06
3.74943e-07
1.2135e-06
-1.57379e-07
1.17306e-06
2.16369e-07
1.18194e-06
4.97272e-07
1.24291e-06
1.06222e-06
1.21969e-06
5.304e-07
1.23745e-06
6.54668e-07
1.23486e-06
4.87206e-07
1.24159e-06
5.02107e-07
1.20907e-06
3.02304e-07
1.2242e-06
2.32259e-07
1.20258e-06
6.09337e-08
1.22098e-06
1.01908e-08
1.20315e-06
-1.15097e-08
1.89544e-08
1.21936e-06
1.34438e-06
-2.6792e-07
1.1474e-06
1.33061e-06
1.21265e-06
-1.51279e-06
1.42905e-06
6.3967e-08
1.35025e-06
7.51283e-07
1.22377e-06
5.0142e-07
1.28174e-06
-2.15343e-07
1.24511e-06
2.53001e-07
1.23845e-06
5.03927e-07
1.31975e-06
9.80917e-07
1.28492e-06
5.65232e-07
1.31221e-06
6.27376e-07
1.29734e-06
5.02084e-07
1.31519e-06
4.84255e-07
1.27769e-06
3.39798e-07
1.28871e-06
2.21246e-07
1.26958e-06
8.00597e-08
1.27745e-06
2.32427e-09
1.26985e-06
-3.90871e-09
1.89618e-08
1.26984e-06
1.4108e-06
-3.3462e-07
1.2369e-06
1.50451e-06
1.28447e-06
-1.56036e-06
1.50082e-06
-1.52376e-07
1.43473e-06
8.17368e-07
1.3117e-06
6.24453e-07
1.35547e-06
-2.59115e-07
1.33294e-06
2.75529e-07
1.30178e-06
5.35089e-07
1.39535e-06
8.87352e-07
1.35692e-06
6.03656e-07
1.3816e-06
6.027e-07
1.36635e-06
5.17328e-07
1.38143e-06
4.69179e-07
1.3541e-06
3.67129e-07
1.35212e-06
2.23223e-07
1.33924e-06
9.29428e-08
1.33825e-06
3.30999e-09
1.3339e-06
4.41502e-10
2.15579e-08
1.33131e-06
1.47928e-06
-4.05542e-07
1.34236e-06
1.64143e-06
1.36032e-06
-1.57832e-06
1.56971e-06
-3.61762e-07
1.52428e-06
8.62794e-07
1.41081e-06
7.37927e-07
1.43017e-06
-2.78472e-07
1.42581e-06
2.79884e-07
1.37522e-06
5.85678e-07
1.46225e-06
8.00328e-07
1.43483e-06
6.31073e-07
1.44828e-06
5.89254e-07
1.43981e-06
5.25794e-07
1.44848e-06
4.60508e-07
1.4319e-06
3.83714e-07
1.42232e-06
2.32798e-07
1.4093e-06
1.05961e-07
1.40434e-06
8.27032e-09
1.39837e-06
6.41111e-09
2.49588e-08
1.39497e-06
1.5477e-06
-4.7757e-07
1.45579e-06
1.73334e-06
1.43563e-06
-1.55816e-06
1.62986e-06
-5.5599e-07
1.61412e-06
8.78533e-07
1.51426e-06
8.37785e-07
1.50163e-06
-2.65844e-07
1.50984e-06
2.71677e-07
1.45877e-06
6.36746e-07
1.52584e-06
7.33261e-07
1.51614e-06
6.40774e-07
1.51968e-06
5.85711e-07
1.51642e-06
5.29052e-07
1.52076e-06
4.56166e-07
1.50997e-06
3.94509e-07
1.49785e-06
2.44915e-07
1.48238e-06
1.21428e-07
1.47358e-06
1.70721e-08
1.46571e-06
1.42794e-08
3.05137e-08
1.46016e-06
1.61415e-06
-5.45506e-07
1.5656e-06
1.7819e-06
1.50775e-06
-1.50032e-06
1.67896e-06
-7.27192e-07
1.69907e-06
8.58423e-07
1.61495e-06
9.21905e-07
1.56952e-06
-2.20416e-07
1.58035e-06
2.60848e-07
1.54761e-06
6.69483e-07
1.59355e-06
6.87324e-07
1.59732e-06
6.36999e-07
1.59681e-06
5.86222e-07
1.59526e-06
5.30606e-07
1.59701e-06
4.54417e-07
1.58854e-06
4.02981e-07
1.57594e-06
2.57514e-07
1.55886e-06
1.38504e-07
1.54609e-06
2.98473e-08
1.53617e-06
2.41928e-08
3.87536e-08
1.52793e-06
1.67816e-06
-6.03535e-07
1.66404e-06
1.79602e-06
1.57891e-06
-1.4152e-06
1.72031e-06
-8.68587e-07
1.7749e-06
8.03829e-07
1.70888e-06
9.87925e-07
1.63765e-06
-1.49185e-07
1.64292e-06
2.55577e-07
1.63464e-06
6.77768e-07
1.66588e-06
6.56081e-07
1.67569e-06
6.2719e-07
1.67552e-06
5.86391e-07
1.67429e-06
5.31838e-07
1.6744e-06
4.543e-07
1.66706e-06
4.10327e-07
1.65492e-06
2.69653e-07
1.63784e-06
1.55579e-07
1.62211e-06
4.55782e-08
1.61024e-06
3.60654e-08
4.9729e-08
1.59926e-06
1.74137e-06
-6.47333e-07
1.75135e-06
1.78604e-06
1.65441e-06
-1.31825e-06
1.76062e-06
-9.74799e-07
1.83977e-06
7.24688e-07
1.79536e-06
1.03233e-06
1.71064e-06
-6.44596e-08
1.70625e-06
2.59969e-07
1.71534e-06
6.6867e-07
1.73861e-06
6.32814e-07
1.75008e-06
6.15717e-07
1.75205e-06
5.84427e-07
1.75153e-06
5.32353e-07
1.75122e-06
4.54612e-07
1.7453e-06
4.16246e-07
1.73446e-06
2.80494e-07
1.71889e-06
1.71154e-07
1.70175e-06
6.27184e-08
1.68855e-06
4.92635e-08
6.29992e-08
1.67528e-06
1.80698e-06
-6.75593e-07
1.83325e-06
1.75977e-06
1.73816e-06
-1.22316e-06
1.8067e-06
-1.04334e-06
1.89573e-06
6.35656e-07
1.87566e-06
1.0524e-06
1.79063e-06
2.05711e-08
1.77631e-06
2.74289e-07
1.79035e-06
6.54627e-07
1.80898e-06
6.14182e-07
1.82126e-06
6.03442e-07
1.82592e-06
5.79762e-07
1.82711e-06
5.31164e-07
1.82778e-06
4.53942e-07
1.82416e-06
4.19866e-07
1.81538e-06
2.89272e-07
1.80235e-06
1.84188e-07
1.78521e-06
7.98621e-08
1.77154e-06
6.29269e-08
7.76238e-08
1.75692e-06
1.87822e-06
-6.90064e-07
1.9158e-06
1.72219e-06
1.83036e-06
-1.13773e-06
1.86351e-06
-1.07649e-06
1.9489e-06
5.50271e-07
1.95219e-06
1.04911e-06
1.87683e-06
9.59361e-08
1.85519e-06
2.95926e-07
1.86431e-06
6.45509e-07
1.87891e-06
5.99582e-07
1.89241e-06
5.89935e-07
1.89985e-06
5.72326e-07
1.90346e-06
5.27554e-07
1.90609e-06
4.51315e-07
1.90537e-06
4.20583e-07
1.89904e-06
2.95603e-07
1.889e-06
1.94231e-07
1.87282e-06
9.60398e-08
1.85943e-06
7.63163e-08
9.24458e-08
1.84461e-06
1.95699e-06
-6.94212e-07
2.00243e-06
1.67675e-06
1.92873e-06
-1.06403e-06
1.93359e-06
-1.08134e-06
2.00684e-06
4.77021e-07
2.02813e-06
1.02782e-06
1.96713e-06
1.56929e-07
1.94248e-06
3.20576e-07
1.94306e-06
6.44931e-07
1.95365e-06
5.88993e-07
1.96847e-06
5.75117e-07
1.97805e-06
5.62743e-07
1.98396e-06
5.21642e-07
1.98861e-06
4.46665e-07
1.99073e-06
4.18468e-07
1.98668e-06
2.9965e-07
1.9795e-06
2.01414e-07
1.96482e-06
1.10715e-07
1.95218e-06
8.89565e-08
1.06412e-07
1.93821e-06
2.04353e-06
-6.91555e-07
2.0939e-06
1.62638e-06
2.03083e-06
-1.00096e-06
2.01685e-06
-1.06736e-06
2.07502e-06
4.18849e-07
2.10665e-06
9.96192e-07
2.05992e-06
2.03652e-07
2.0368e-06
3.43697e-07
2.03082e-06
6.50918e-07
2.03816e-06
5.8165e-07
2.05372e-06
5.59559e-07
2.06413e-06
5.52333e-07
2.07137e-06
5.14402e-07
2.07723e-06
4.40806e-07
2.08147e-06
4.14225e-07
2.0791e-06
3.02024e-07
2.07418e-06
2.06326e-07
2.06122e-06
1.23682e-07
2.04954e-06
1.00635e-07
1.18769e-07
2.03718e-06
2.13709e-06
-6.84648e-07
2.18985e-06
1.57363e-06
2.1354e-06
-9.46511e-07
2.11131e-06
-1.04327e-06
2.15521e-06
3.74945e-07
2.19027e-06
9.61138e-07
2.15494e-06
2.38973e-07
2.13669e-06
3.61956e-07
2.12868e-06
6.58927e-07
2.13422e-06
5.76106e-07
2.14976e-06
5.44021e-07
2.15956e-06
5.42537e-07
2.16688e-06
5.07076e-07
2.17277e-06
4.34915e-07
2.17813e-06
4.08865e-07
2.17668e-06
3.03479e-07
2.1732e-06
2.09803e-07
2.16192e-06
1.34957e-07
2.15123e-06
1.11327e-07
1.29163e-07
2.14084e-06
2.23681e-06
-6.74968e-07
2.2901e-06
1.52034e-06
2.24239e-06
-8.98809e-07
2.21433e-06
-1.0152e-06
2.24641e-06
3.42864e-07
2.28056e-06
9.26982e-07
2.25319e-06
2.66348e-07
2.24116e-06
3.73987e-07
2.23526e-06
6.64823e-07
2.24041e-06
5.70961e-07
2.25538e-06
5.29045e-07
2.26362e-06
5.34298e-07
2.27018e-06
5.00519e-07
2.27516e-06
4.29929e-07
2.2807e-06
4.03333e-07
2.27957e-06
3.0461e-07
2.2767e-06
2.12667e-07
2.26697e-06
1.4469e-07
2.25719e-06
1.21106e-07
1.37631e-07
2.24872e-06
2.34221e-06
-6.63299e-07
2.395e-06
1.46755e-06
2.35241e-06
-8.56226e-07
2.32377e-06
-9.86559e-07
2.34677e-06
3.19864e-07
2.37833e-06
8.95425e-07
2.35616e-06
2.88519e-07
2.34994e-06
3.80201e-07
2.34839e-06
6.66379e-07
2.35393e-06
5.65418e-07
2.3681e-06
5.14878e-07
2.37451e-06
5.2788e-07
2.38008e-06
4.94953e-07
2.38382e-06
4.26188e-07
2.38891e-06
3.98244e-07
2.38783e-06
3.0569e-07
2.38499e-06
2.15508e-07
2.37659e-06
1.53087e-07
2.36764e-06
1.3006e-07
1.44478e-07
2.36079e-06
2.45323e-06
-6.50133e-07
2.50514e-06
1.41564e-06
2.46623e-06
-8.17316e-07
2.43846e-06
-9.58789e-07
2.45485e-06
3.03477e-07
2.48377e-06
8.66508e-07
2.46514e-06
3.07147e-07
2.46338e-06
3.81965e-07
2.46649e-06
6.63268e-07
2.47253e-06
5.59372e-07
2.48581e-06
5.01601e-07
2.4906e-06
5.23094e-07
2.49539e-06
4.90161e-07
2.49811e-06
4.23465e-07
2.50253e-06
3.93823e-07
2.50154e-06
3.06679e-07
2.49847e-06
2.1858e-07
2.49116e-06
1.60393e-07
2.483e-06
1.38222e-07
1.50112e-07
2.47737e-06
2.57003e-06
-6.35866e-07
2.62106e-06
1.36461e-06
2.58455e-06
-7.80809e-07
2.55801e-06
-9.32252e-07
2.56982e-06
2.91672e-07
2.59671e-06
8.39612e-07
2.58087e-06
3.22992e-07
2.58205e-06
3.80784e-07
2.58901e-06
6.56309e-07
2.59521e-06
5.53173e-07
2.60756e-06
4.89251e-07
2.61107e-06
5.19579e-07
2.61543e-06
4.85801e-07
2.6177e-06
4.21191e-07
2.62153e-06
3.89998e-07
2.62084e-06
3.07373e-07
2.61757e-06
2.2185e-07
2.61107e-06
1.66893e-07
2.60372e-06
1.45569e-07
1.54908e-07
2.59892e-06
2.69279e-06
-6.20831e-07
2.74311e-06
1.31429e-06
2.70795e-06
-7.45646e-07
2.68249e-06
-9.06792e-07
2.69132e-06
2.82844e-07
2.71687e-06
8.14061e-07
2.70358e-06
3.36279e-07
2.70652e-06
3.77849e-07
2.71613e-06
6.46696e-07
2.72197e-06
5.47331e-07
2.73336e-06
4.77864e-07
2.73599e-06
5.16945e-07
2.74018e-06
4.81609e-07
2.74266e-06
4.18716e-07
2.7461e-06
3.86561e-07
2.74589e-06
3.07579e-07
2.74262e-06
2.25121e-07
2.73663e-06
1.7288e-07
2.73012e-06
1.52084e-07
1.59132e-07
2.72589e-06
2.82172e-06
-6.05284e-07
2.8716e-06
1.26441e-06
2.83696e-06
-7.11e-07
2.8122e-06
-8.82033e-07
2.81933e-06
2.75706e-07
2.84406e-06
7.89338e-07
2.83327e-06
3.47067e-07
2.83713e-06
3.73989e-07
2.8483e-06
6.35525e-07
2.85336e-06
5.42268e-07
2.86378e-06
4.67446e-07
2.86593e-06
5.14792e-07
2.87007e-06
4.77474e-07
2.87328e-06
4.15504e-07
2.87656e-06
3.83275e-07
2.87689e-06
3.07252e-07
2.87388e-06
2.28136e-07
2.86814e-06
1.78616e-07
2.86239e-06
1.57836e-07
1.62906e-07
2.85861e-06
2.95701e-06
-5.894e-07
3.00677e-06
1.21465e-06
2.97206e-06
-6.7629e-07
2.94755e-06
-8.57523e-07
2.95405e-06
2.69209e-07
2.97827e-06
7.65119e-07
2.96985e-06
3.55482e-07
2.97405e-06
3.69789e-07
2.98595e-06
6.23628e-07
2.99005e-06
5.38173e-07
2.99956e-06
4.57929e-07
3.00165e-06
5.12707e-07
3.00569e-06
4.73431e-07
3.00996e-06
4.1124e-07
3.01328e-06
3.7995e-07
3.01402e-06
3.06513e-07
3.01149e-06
2.30664e-07
3.00586e-06
1.84251e-07
3.00066e-06
1.63031e-07
1.66213e-07
2.99735e-06
3.0989e-06
-5.73291e-07
3.14879e-06
1.16475e-06
3.11372e-06
-6.4122e-07
3.08905e-06
-8.32846e-07
3.09572e-06
2.6254e-07
3.11958e-06
7.41251e-07
3.1133e-06
3.61767e-07
3.11743e-06
3.6566e-07
3.12949e-06
6.11562e-07
3.13268e-06
5.34983e-07
3.14144e-06
4.49172e-07
3.14385e-06
5.10293e-07
3.14768e-06
4.69605e-07
3.15306e-06
4.05857e-07
3.15656e-06
3.76455e-07
3.15748e-06
3.05593e-07
3.15561e-06
2.3253e-07
3.15006e-06
1.89806e-07
3.14513e-06
1.67959e-07
1.68968e-07
3.14238e-06
3.24765e-06
-5.57029e-07
3.29779e-06
1.11461e-06
3.26235e-06
-6.05776e-07
3.23718e-06
-8.07681e-07
3.24457e-06
2.55151e-07
3.26809e-06
7.17732e-07
3.26363e-06
3.66228e-07
3.26745e-06
3.61837e-07
3.27937e-06
5.99643e-07
3.28189e-06
5.32464e-07
3.29005e-06
4.41016e-07
3.29313e-06
5.07212e-07
3.2966e-06
4.66133e-07
3.30297e-06
3.99491e-07
3.30671e-06
3.72712e-07
3.30756e-06
3.04739e-07
3.30639e-06
2.33705e-07
3.3011e-06
1.95093e-07
3.2961e-06
1.72964e-07
1.7113e-07
3.29393e-06
3.40357e-06
-5.40665e-07
3.45391e-06
1.06427e-06
3.41829e-06
-5.7016e-07
3.39243e-06
-7.81822e-07
3.40083e-06
2.46754e-07
3.4239e-06
6.94664e-07
3.42096e-06
3.69168e-07
3.42443e-06
3.58365e-07
3.43607e-06
5.88002e-07
3.43822e-06
5.30317e-07
3.44591e-06
4.33322e-07
3.4499e-06
5.03228e-07
3.45292e-06
4.63105e-07
3.46e-06
3.92412e-07
3.46406e-06
3.68656e-07
3.46463e-06
3.04163e-07
3.46404e-06
2.34303e-07
3.45932e-06
1.99805e-07
3.45399e-06
1.783e-07
1.72839e-07
3.45228e-06
3.56699e-06
-5.24249e-07
3.61736e-06
1.01391e-06
3.58188e-06
-5.34687e-07
3.55522e-06
-7.55162e-07
3.56473e-06
2.37253e-07
3.58722e-06
6.72173e-07
3.58552e-06
3.70863e-07
3.58875e-06
3.55135e-07
3.6001e-06
5.76651e-07
3.60215e-06
5.28266e-07
3.60947e-06
4.26004e-07
3.61447e-06
4.98229e-07
3.61704e-06
4.60537e-07
3.62451e-06
3.84946e-07
3.62896e-06
3.64202e-07
3.62912e-06
3.04e-07
3.62887e-06
2.34555e-07
3.62504e-06
2.03636e-07
3.61935e-06
1.83995e-07
1.74465e-07
3.61772e-06
3.73829e-06
-5.07833e-07
3.78844e-06
9.63759e-07
3.75345e-06
-4.99697e-07
3.72593e-06
-7.2765e-07
3.73652e-06
2.26667e-07
3.75835e-06
6.50341e-07
3.75764e-06
3.71575e-07
3.76082e-06
3.51952e-07
3.77194e-06
5.65537e-07
3.77409e-06
5.26107e-07
3.78109e-06
4.19008e-07
3.78712e-06
4.92204e-07
3.78928e-06
4.58369e-07
3.79679e-06
3.77436e-07
3.80175e-06
3.59245e-07
3.80147e-06
3.04285e-07
3.80128e-06
2.3474e-07
3.79852e-06
2.06393e-07
3.7927e-06
1.89818e-07
1.76521e-07
3.79065e-06
3.91783e-06
-4.91474e-07
3.96751e-06
9.14075e-07
3.93331e-06
-4.65497e-07
3.90493e-06
-6.99269e-07
3.91651e-06
2.15085e-07
3.9377e-06
6.29158e-07
3.93772e-06
3.71555e-07
3.94107e-06
3.48603e-07
3.95201e-06
5.54593e-07
3.95439e-06
5.23728e-07
3.9611e-06
4.12299e-07
3.96809e-06
4.85213e-07
3.96996e-06
4.56502e-07
3.97719e-06
3.70202e-07
3.98276e-06
3.53674e-07
3.9821e-06
3.0495e-07
3.98168e-06
2.35156e-07
3.98002e-06
2.08054e-07
3.97451e-06
1.95333e-07
1.79436e-07
3.97159e-06
4.106e-06
-4.75226e-07
4.15499e-06
8.65084e-07
4.12184e-06
-4.32349e-07
4.09261e-06
-6.70031e-07
4.10505e-06
2.02645e-07
4.12569e-06
6.08515e-07
4.12619e-06
3.71053e-07
4.1299e-06
3.44894e-07
4.14076e-06
5.43738e-07
4.14339e-06
5.21098e-07
4.14983e-06
4.05859e-07
4.15772e-06
4.77322e-07
4.15937e-06
4.54844e-07
4.16607e-06
3.63505e-07
4.17233e-06
3.47416e-07
4.17142e-06
3.05861e-07
4.17049e-06
2.36082e-07
4.16979e-06
2.08753e-07
4.16512e-06
2.00002e-07
1.83375e-07
4.16119e-06
4.30321e-06
-4.5913e-07
4.3513e-06
8.16989e-07
4.31941e-06
-4.00457e-07
4.28937e-06
-6.39995e-07
4.30248e-06
1.8954e-07
4.32278e-06
5.88214e-07
4.32352e-06
3.70309e-07
4.32773e-06
3.40684e-07
4.33861e-06
5.32858e-07
4.34145e-06
5.18262e-07
4.34762e-06
3.99686e-07
4.35636e-06
4.6858e-07
4.35789e-06
4.53322e-07
4.36385e-06
3.57539e-07
4.37078e-06
3.4049e-07
4.3698e-06
3.0684e-07
4.3682e-06
2.37678e-07
4.36817e-06
2.08783e-07
4.36479e-06
2.03382e-07
1.88058e-07
4.36011e-06
4.50986e-06
-4.43213e-07
4.55689e-06
7.69953e-07
4.5264e-06
-3.6996e-07
4.49569e-06
-6.09285e-07
4.50921e-06
1.76018e-07
4.52942e-06
5.68003e-07
4.53018e-06
3.69547e-07
4.53498e-06
3.3589e-07
4.54603e-06
5.21808e-07
4.549e-06
5.15289e-07
4.55487e-06
3.93813e-07
4.56445e-06
4.59006e-07
4.56591e-06
4.5186e-07
4.57098e-06
3.52461e-07
4.57845e-06
3.3302e-07
4.57764e-06
3.07652e-07
4.57532e-06
2.40003e-07
4.57563e-06
2.08473e-07
4.57371e-06
2.05301e-07
1.92853e-07
4.56891e-06
4.72639e-06
-4.27488e-07
4.77224e-06
7.24102e-07
4.74321e-06
-3.40927e-07
4.71203e-06
-5.78107e-07
4.72567e-06
1.62381e-07
4.74607e-06
5.47604e-07
4.74667e-06
3.68943e-07
4.75203e-06
3.30528e-07
4.76344e-06
5.10397e-07
4.76649e-06
5.12239e-07
4.77199e-06
3.88319e-07
4.7824e-06
4.48588e-07
4.78391e-06
4.50352e-07
4.78794e-06
3.4843e-07
4.79583e-06
3.25133e-07
4.79542e-06
3.08066e-07
4.79237e-06
2.4305e-07
4.79268e-06
2.08161e-07
4.79217e-06
2.05813e-07
1.97028e-07
4.78799e-06
4.95326e-06
-4.11951e-07
4.99785e-06
6.79514e-07
4.97026e-06
-3.13338e-07
4.93891e-06
-5.46754e-07
4.95232e-06
1.48962e-07
4.97318e-06
5.26753e-07
4.97352e-06
3.68602e-07
4.97932e-06
3.24726e-07
4.99131e-06
4.98409e-07
4.99443e-06
5.09117e-07
4.9994e-06
3.83344e-07
5.01071e-06
4.37282e-07
5.0124e-06
4.48661e-07
5.01522e-06
3.45607e-07
5.02341e-06
3.16942e-07
5.02363e-06
3.07853e-07
5.01989e-06
2.46787e-07
5.01999e-06
2.08061e-07
5.02054e-06
2.05267e-07
1.99962e-07
5.0176e-06
5.19094e-06
-3.96578e-07
5.23425e-06
6.36209e-07
5.20798e-06
-2.87074e-07
5.17684e-06
-5.15605e-07
5.18969e-06
1.3611e-07
5.2112e-06
5.05236e-07
5.21128e-06
3.68523e-07
5.21729e-06
3.1872e-07
5.23006e-06
4.85643e-07
5.23332e-06
5.05853e-07
5.23762e-06
3.79048e-07
5.24981e-06
4.25092e-07
5.2519e-06
4.46564e-07
5.2534e-06
3.44113e-07
5.26167e-06
3.08669e-07
5.26281e-06
3.06709e-07
5.25845e-06
2.51152e-07
5.25813e-06
2.08383e-07
5.25943e-06
2.0397e-07
2.01459e-07
5.25793e-06
5.43994e-06
-3.81325e-07
5.48201e-06
5.94134e-07
5.45683e-06
-2.61889e-07
5.42636e-06
-4.85139e-07
5.4383e-06
1.24171e-07
5.46061e-06
4.82925e-07
5.4606e-06
3.68538e-07
5.46646e-06
3.12855e-07
5.48012e-06
4.71979e-07
5.4837e-06
5.02277e-07
5.48717e-06
3.75575e-07
5.50013e-06
4.12138e-07
5.503e-06
4.43694e-07
5.50306e-06
3.44055e-07
5.51114e-06
3.00583e-07
5.51353e-06
3.04321e-07
5.50867e-06
2.56013e-07
5.50766e-06
2.09388e-07
5.50945e-06
2.02184e-07
2.01569e-07
5.50934e-06
5.70076e-06
-3.66127e-07
5.74174e-06
5.53157e-07
5.71726e-06
-2.3741e-07
5.68803e-06
-4.55915e-07
5.69875e-06
1.13453e-07
5.72186e-06
4.59816e-07
5.72209e-06
3.68308e-07
5.72742e-06
3.07523e-07
5.74196e-06
4.57442e-07
5.7461e-06
4.98129e-07
5.74866e-06
3.73022e-07
5.76215e-06
3.98646e-07
5.7662e-06
4.3965e-07
5.76483e-06
3.45424e-07
5.77234e-06
2.93069e-07
5.77625e-06
3.00409e-07
5.77125e-06
2.61016e-07
5.76915e-06
2.11487e-07
5.77124e-06
2.00094e-07
2.00425e-07
5.77238e-06
5.97396e-06
-3.50896e-07
6.01404e-06
5.13078e-07
5.98979e-06
-2.13159e-07
5.96243e-06
-4.28557e-07
5.97166e-06
1.04223e-07
5.99546e-06
4.36023e-07
5.99636e-06
3.67402e-07
6.00082e-06
3.03065e-07
6.01605e-06
4.42215e-07
6.02107e-06
4.93109e-07
6.02269e-06
3.71405e-07
6.0364e-06
3.84929e-07
6.04197e-06
4.3408e-07
6.03938e-06
3.48019e-07
6.04585e-06
2.86598e-07
6.05144e-06
2.9482e-07
6.04679e-06
2.65669e-07
6.04337e-06
2.14906e-07
6.04537e-06
1.98091e-07
1.98146e-07
6.04765e-06
6.26012e-06
-3.35525e-07
6.29957e-06
4.73623e-07
6.275e-06
-1.8859e-07
6.25015e-06
-4.037e-07
6.25771e-06
9.66596e-08
6.28181e-06
4.11918e-07
6.28397e-06
3.65242e-07
6.28736e-06
2.99677e-07
6.30297e-06
4.26604e-07
6.30911e-06
4.86968e-07
6.3099e-06
3.70622e-07
6.32346e-06
3.71367e-07
6.3308e-06
4.26744e-07
6.32733e-06
3.5148e-07
6.33236e-06
2.81576e-07
6.33947e-06
2.87704e-07
6.33583e-06
2.69316e-07
6.33115e-06
2.19582e-07
6.33245e-06
1.96787e-07
1.94895e-07
6.3357e-06
6.55984e-06
-3.19894e-07
6.59898e-06
4.34478e-07
6.57359e-06
-1.63198e-07
6.55178e-06
-3.81888e-07
6.55763e-06
9.08112e-08
6.58138e-06
3.88164e-07
6.58539e-06
3.61229e-07
6.58776e-06
2.97308e-07
6.60336e-06
4.11012e-07
6.61077e-06
4.79556e-07
6.61092e-06
3.70465e-07
6.62397e-06
3.58322e-07
6.6331e-06
4.17618e-07
6.62934e-06
3.55241e-07
6.63251e-06
2.78404e-07
6.6408e-06
2.79412e-07
6.63883e-06
2.71283e-07
6.63328e-06
2.25137e-07
6.63335e-06
1.96717e-07
1.91144e-07
6.6371e-06
6.87378e-06
-3.03885e-07
6.91294e-06
3.95323e-07
6.88659e-06
-1.36852e-07
6.86786e-06
-3.63156e-07
6.87235e-06
8.63209e-08
6.89481e-06
3.657e-07
6.90106e-06
3.54987e-07
6.90273e-06
2.95633e-07
6.91789e-06
3.95851e-07
6.92659e-06
4.70854e-07
6.92636e-06
3.70695e-07
6.9386e-06
3.46088e-07
6.94939e-06
4.06822e-07
6.94594e-06
3.58699e-07
6.94701e-06
2.77329e-07
6.95594e-06
2.70478e-07
6.95623e-06
2.70992e-07
6.95036e-06
2.31009e-07
6.94905e-06
1.98031e-07
1.87624e-07
6.95257e-06
7.20265e-06
-2.87395e-07
7.24208e-06
3.55889e-07
7.21492e-06
-1.09692e-07
7.19849e-06
-3.46723e-07
7.20268e-06
8.21265e-08
7.22296e-06
3.45426e-07
7.23138e-06
3.46564e-07
7.23293e-06
2.94083e-07
7.24731e-06
3.81466e-07
7.25719e-06
4.60975e-07
7.25683e-06
3.7106e-07
7.268e-06
3.34915e-07
7.28028e-06
3.94543e-07
7.27773e-06
3.61243e-07
7.27667e-06
2.78391e-07
7.28554e-06
2.61614e-07
7.28842e-06
2.68108e-07
7.28297e-06
2.36465e-07
7.28033e-06
2.0067e-07
1.84942e-07
7.28301e-06
7.54717e-06
-2.70343e-07
7.58705e-06
3.16009e-07
7.55941e-06
-8.20477e-08
7.54389e-06
-3.31201e-07
7.54923e-06
7.67823e-08
7.56677e-06
3.27892e-07
7.57689e-06
3.36437e-07
7.57898e-06
2.91995e-07
7.59238e-06
3.68062e-07
7.60319e-06
4.50166e-07
7.6029e-06
3.71354e-07
7.61284e-06
3.24973e-07
7.62638e-06
3.81008e-07
7.62528e-06
3.62341e-07
7.62241e-06
2.81263e-07
7.63031e-06
2.53708e-07
7.63581e-06
2.62605e-07
7.63154e-06
2.40736e-07
7.62787e-06
2.04347e-07
1.83405e-07
7.6294e-06
7.90817e-06
-2.52699e-07
7.94852e-06
2.75656e-07
7.9209e-06
-5.44312e-08
7.90478e-06
-3.15079e-07
7.9126e-06
6.89668e-08
7.92735e-06
3.1314e-07
7.93838e-06
3.25408e-07
7.94156e-06
2.88812e-07
7.95385e-06
3.55772e-07
7.96524e-06
4.38774e-07
7.96522e-06
3.71379e-07
7.97382e-06
3.16372e-07
7.98832e-06
3.66508e-07
7.9891e-06
3.6156e-07
7.98502e-06
2.85349e-07
7.99116e-06
2.47565e-07
7.99882e-06
2.54945e-07
7.99657e-06
2.42984e-07
7.99231e-06
2.08605e-07
1.83132e-07
7.99259e-06
8.28646e-06
-2.34473e-07
8.32715e-06
2.34962e-07
8.30026e-06
-2.75435e-08
8.28205e-06
-2.96865e-07
8.29357e-06
5.74409e-08
8.30646e-06
3.00257e-07
8.31679e-06
3.15076e-07
8.3209e-06
2.84706e-07
8.33227e-06
3.44393e-07
8.34401e-06
4.27039e-07
8.34445e-06
3.70943e-07
8.3517e-06
3.09118e-07
8.36682e-06
3.51388e-07
8.36973e-06
3.58652e-07
8.36523e-06
2.89849e-07
8.36916e-06
2.43634e-07
8.37809e-06
2.46015e-07
8.3785e-06
2.42571e-07
8.37429e-06
2.1282e-07
1.84069e-07
8.37335e-06
8.68293e-06
-2.1574e-07
8.7236e-06
1.94286e-07
8.69831e-06
-2.25303e-09
8.67682e-06
-2.75369e-07
8.69158e-06
4.26744e-08
8.70142e-06
2.90425e-07
8.7109e-06
3.05589e-07
8.71707e-06
2.78542e-07
8.72836e-06
3.33094e-07
8.74036e-06
4.15041e-07
8.74138e-06
3.69925e-07
8.74727e-06
3.03227e-07
8.76267e-06
3.35991e-07
8.76782e-06
3.53498e-07
8.76367e-06
2.93998e-07
8.76539e-06
2.41916e-07
8.77449e-06
2.36914e-07
8.7778e-06
2.39262e-07
8.77446e-06
2.16164e-07
1.85984e-07
8.77254e-06
9.09851e-06
-1.96631e-07
9.13857e-06
1.54225e-07
9.11585e-06
2.04659e-08
9.09006e-06
-2.49578e-07
9.10726e-06
2.54792e-08
9.11692e-06
2.80759e-07
9.12441e-06
2.98105e-07
9.13176e-06
2.71185e-07
9.14316e-06
3.217e-07
9.15528e-06
4.02924e-07
9.15698e-06
3.68224e-07
9.16143e-06
2.9877e-07
9.17676e-06
3.20664e-07
9.18415e-06
3.46113e-07
9.18102e-06
2.97127e-07
9.18097e-06
2.41968e-07
9.1892e-06
2.28683e-07
9.19502e-06
2.33442e-07
9.19339e-06
2.17795e-07
1.88352e-07
9.19102e-06
9.53418e-06
-1.77349e-07
9.57286e-06
1.15546e-07
9.55373e-06
3.95906e-08
9.52404e-06
-2.19885e-07
9.54257e-06
6.94255e-09
9.55333e-06
2.70005e-07
9.55792e-06
2.93517e-07
9.56541e-06
2.63689e-07
9.57743e-06
3.09684e-07
9.5898e-06
3.90551e-07
9.5923e-06
3.65723e-07
9.59534e-06
2.9573e-07
9.61006e-06
3.05943e-07
9.6196e-06
3.3657e-07
9.61805e-06
2.98677e-07
9.61689e-06
2.43132e-07
9.62352e-06
2.22053e-07
9.63104e-06
2.2592e-07
9.63163e-06
2.17213e-07
1.90443e-07
9.62953e-06
9.99095e-06
-1.58162e-07
1.00274e-05
7.905e-08
1.00128e-05
5.42005e-08
9.98e-06
-1.87053e-07
9.99776e-06
-1.08156e-08
1.00112e-05
2.56615e-07
1.0013e-05
2.91632e-07
1.00191e-05
2.57641e-07
1.00319e-05
2.96847e-07
1.0045e-05
3.77465e-07
1.00484e-05
3.62329e-07
1.00502e-05
2.93949e-07
1.00636e-05
2.92476e-07
1.00752e-05
3.25061e-07
1.00757e-05
2.98166e-07
1.00741e-05
2.44717e-07
1.00788e-05
2.17319e-07
1.00871e-05
2.17665e-07
1.00899e-05
2.14379e-07
1.9161e-07
1.00887e-05
1.04699e-05
-1.39409e-07
1.05034e-05
4.55437e-08
1.04941e-05
6.35042e-08
1.04591e-05
-1.5204e-07
1.04738e-05
-2.55372e-08
1.04911e-05
2.39357e-07
1.04912e-05
2.91459e-07
1.04944e-05
2.54506e-07
1.05075e-05
2.83756e-07
1.05219e-05
3.63055e-07
1.05264e-05
3.57759e-07
1.05272e-05
2.9315e-07
1.05389e-05
2.80795e-07
1.05519e-05
3.12053e-07
1.05547e-05
2.95373e-07
1.05534e-05
2.46012e-07
1.05564e-05
2.14359e-07
1.05645e-05
2.09594e-07
1.05692e-05
2.09625e-07
1.91439e-07
1.05694e-05
1.09721e-05
-1.21479e-07
1.10019e-05
1.57563e-08
1.09984e-05
6.70052e-08
1.09622e-05
-1.15891e-07
1.09719e-05
-3.51768e-08
1.09935e-05
2.17679e-07
1.09936e-05
2.91371e-07
1.09933e-05
2.54866e-07
1.10053e-05
2.71694e-07
1.10213e-05
3.47128e-07
1.10275e-05
3.51553e-07
1.10278e-05
2.92805e-07
1.10373e-05
2.71261e-07
1.10512e-05
2.98244e-07
1.10561e-05
2.90384e-07
1.10557e-05
2.46434e-07
1.10574e-05
2.12666e-07
1.10645e-05
2.02485e-07
1.10707e-05
2.03402e-07
1.89784e-07
1.10724e-05
1.14987e-05
-1.04788e-07
1.15241e-05
-9.63226e-09
1.15265e-05
6.45974e-08
1.14904e-05
-7.9865e-08
1.14937e-05
-3.84598e-08
1.1519e-05
1.92423e-07
1.15209e-05
2.89435e-07
1.15175e-05
2.58306e-07
1.15272e-05
2.61974e-07
1.15442e-05
3.30129e-07
1.15524e-05
3.4331e-07
1.1553e-05
2.92262e-07
1.15603e-05
2.63928e-07
1.15741e-05
2.84421e-07
1.15811e-05
2.83464e-07
1.15819e-05
2.45618e-07
1.1583e-05
2.11558e-07
1.15887e-05
1.96729e-07
1.15957e-05
1.96407e-07
1.86601e-07
1.15989e-05
1.20508e-05
-8.97357e-08
1.20713e-05
-3.01355e-08
1.20791e-05
5.67208e-08
1.20448e-05
-4.54734e-08
1.20412e-05
-3.48999e-08
1.2068e-05
1.65648e-07
1.20737e-05
2.83706e-07
1.20682e-05
2.63806e-07
1.20747e-05
2.5547e-07
1.20918e-05
3.12993e-07
1.21023e-05
3.3284e-07
1.21037e-05
2.90915e-07
1.21091e-05
2.58447e-07
1.21222e-05
2.71366e-07
1.21307e-05
2.74937e-07
1.21329e-05
2.43431e-07
1.2134e-05
2.10426e-07
1.21386e-05
1.92213e-07
1.21455e-05
1.89488e-07
1.81971e-07
1.21501e-05
1.26295e-05
-7.66315e-08
1.26448e-05
-4.54097e-08
1.26569e-05
4.45836e-08
1.2626e-05
-1.45517e-08
1.26159e-05
-2.48084e-08
1.26415e-05
1.40016e-07
1.26523e-05
2.72885e-07
1.26464e-05
2.69739e-07
1.26495e-05
2.52375e-07
1.26657e-05
2.96828e-07
1.26781e-05
3.20443e-07
1.26808e-05
2.88138e-07
1.2685e-05
2.54313e-07
1.26967e-05
2.59616e-07
1.27064e-05
2.65259e-07
1.271e-05
2.3983e-07
1.27115e-05
2.08913e-07
1.27153e-05
1.88462e-07
1.27215e-05
1.83211e-07
1.76352e-07
1.27272e-05
1.32359e-05
-6.56321e-08
1.32455e-05
-5.49848e-08
1.32604e-05
2.9674e-08
1.32347e-05
1.11364e-08
1.32193e-05
-9.40302e-09
1.32407e-05
1.1866e-07
1.32571e-05
2.56447e-07
1.32528e-05
2.74023e-07
1.32531e-05
2.52123e-07
1.32672e-05
2.82667e-07
1.3281e-05
3.0672e-07
1.32856e-05
2.83495e-07
1.3289e-05
2.50919e-07
1.32993e-05
2.49348e-07
1.33095e-05
2.55061e-07
1.33144e-05
2.34874e-07
1.33165e-05
2.068e-07
1.332e-05
1.85048e-07
1.33256e-05
1.77607e-07
1.70464e-07
1.33314e-05
1.38713e-05
-5.6779e-08
1.3876e-05
-5.9698e-08
1.38918e-05
1.3924e-08
1.38718e-05
3.10718e-08
1.38527e-05
9.69444e-09
1.38676e-05
1.03811e-07
1.38886e-05
2.35415e-07
1.38883e-05
2.7438e-07
1.38867e-05
2.53702e-07
1.38982e-05
2.71138e-07
1.39125e-05
2.92429e-07
1.3919e-05
2.77001e-07
1.39224e-05
2.47531e-07
1.39312e-05
2.40515e-07
1.39414e-05
2.44863e-07
1.39475e-05
2.28771e-07
1.39504e-05
2.03912e-07
1.39537e-05
1.81746e-07
1.39589e-05
1.72419e-07
1.64787e-07
1.39646e-05
1.45368e-05
-4.98969e-08
1.45366e-05
-5.94878e-08
1.45519e-05
-1.37558e-09
1.45384e-05
4.45933e-08
1.45178e-05
3.02544e-08
1.45255e-05
9.61419e-08
1.45483e-05
2.12597e-07
1.45534e-05
2.69262e-07
1.45514e-05
2.55734e-07
1.45603e-05
2.62231e-07
1.45742e-05
2.785e-07
1.45824e-05
2.6882e-07
1.45863e-05
2.4363e-07
1.4594e-05
2.32828e-07
1.46038e-05
2.35029e-07
1.46107e-05
2.21853e-07
1.46145e-05
2.00135e-07
1.46178e-05
1.78414e-07
1.46228e-05
1.67456e-07
1.59404e-07
1.46282e-05
1.52337e-05
-4.47107e-08
1.523e-05
-5.58074e-08
1.5243e-05
-1.43733e-08
1.52354e-05
5.22085e-08
1.52157e-05
4.99893e-08
1.52169e-05
9.49189e-08
1.52384e-05
1.91099e-07
1.5249e-05
2.58635e-07
1.52483e-05
2.56429e-07
1.52549e-05
2.55693e-07
1.52676e-05
2.65713e-07
1.52772e-05
2.59266e-07
1.5282e-05
2.38842e-07
1.52889e-05
2.2595e-07
1.52982e-05
2.25735e-07
1.53056e-05
2.1445e-07
1.53102e-05
1.95519e-07
1.53138e-05
1.74815e-07
1.53186e-05
1.62674e-07
1.54154e-07
1.53238e-05
1.59635e-05
-4.08376e-08
1.59573e-05
-4.96016e-08
1.59668e-05
-2.39417e-08
1.59643e-05
5.47573e-08
1.59473e-05
6.6973e-08
1.59439e-05
9.83419e-08
1.59616e-05
1.73346e-07
1.59763e-05
2.43906e-07
1.59786e-05
2.54166e-07
1.59833e-05
2.50955e-07
1.59946e-05
2.54426e-07
1.60049e-05
2.49015e-07
1.60109e-05
2.32867e-07
1.60173e-05
2.19482e-07
1.6026e-05
2.17055e-07
1.60337e-05
2.06802e-07
1.60389e-05
1.90239e-07
1.6043e-05
1.70788e-07
1.60476e-05
1.57995e-07
1.48925e-07
1.60529e-05
1.67276e-05
-3.78358e-08
1.67189e-05
-4.09233e-08
1.67247e-05
-2.97041e-08
1.67267e-05
5.27361e-08
1.67137e-05
7.99608e-08
1.67077e-05
1.04374e-07
1.67206e-05
1.60426e-07
1.67373e-05
2.27193e-07
1.67431e-05
2.48388e-07
1.67473e-05
2.46739e-07
1.67569e-05
2.44838e-07
1.67672e-05
2.38695e-07
1.67743e-05
2.25795e-07
1.67809e-05
2.12921e-07
1.6789e-05
2.08926e-07
1.67966e-05
1.9915e-07
1.68024e-05
1.84429e-07
1.68069e-05
1.66352e-07
1.68116e-05
1.53281e-07
1.43707e-07
1.68168e-05
1.75279e-05
-3.53739e-08
1.75197e-05
-3.2724e-08
1.75207e-05
-3.07526e-08
1.75249e-05
4.86319e-08
1.75162e-05
8.857e-08
1.75092e-05
1.11395e-07
1.75176e-05
1.52013e-07
1.75342e-05
2.10622e-07
1.75431e-05
2.39515e-07
1.75481e-05
2.41725e-07
1.75561e-05
2.3684e-07
1.7566e-05
2.28756e-07
1.75739e-05
2.17964e-07
1.75808e-05
2.05968e-07
1.75887e-05
2.01058e-07
1.75962e-05
1.91627e-07
1.76024e-05
1.78267e-07
1.76072e-05
1.61506e-07
1.7612e-05
1.48531e-07
1.38454e-07
1.76172e-05
1.83661e-05
-3.31118e-08
1.83586e-05
-2.51926e-08
1.83562e-05
-2.84253e-08
1.83609e-05
4.39158e-08
1.83563e-05
9.32097e-08
1.83496e-05
1.18092e-07
1.83545e-05
1.47106e-07
1.83692e-05
1.95924e-07
1.83805e-05
2.28245e-07
1.83869e-05
2.35299e-07
1.8394e-05
2.2974e-07
1.84031e-05
2.19617e-07
1.84114e-05
2.0967e-07
1.84188e-05
1.98637e-07
1.84267e-05
1.9316e-07
1.84341e-05
1.84152e-07
1.84405e-05
1.71944e-07
1.84457e-05
1.56264e-07
1.84505e-05
1.43725e-07
1.33165e-07
1.84558e-05
1.92441e-05
-3.08254e-08
1.92376e-05
-1.8709e-08
1.92328e-05
-2.36506e-08
1.92371e-05
3.96778e-08
1.92356e-05
9.46521e-08
1.92303e-05
1.23481e-07
1.92327e-05
1.44688e-07
1.92447e-05
1.83863e-07
1.92573e-05
2.15667e-07
1.92653e-05
2.27304e-07
1.92723e-05
2.22794e-07
1.92805e-05
2.11348e-07
1.92889e-05
2.0128e-07
1.92966e-05
1.90972e-07