/*--------------------------------*- C++ -*----------------------------------*\
| =========                 |                                                 |
| \\      /  F ield         | OpenFOAM: The Open Source CFD Toolbox           |
|  \\    /   O peration     | Version:  2506                                  |
|   \\  /    A nd           | Website:  www.openfoam.com                      |
|    \\/     M anipulation  |                                                 |
\*---------------------------------------------------------------------------*/
FoamFile
{
    version     2.0;
    format      ascii;
    arch        "LSB;label=32;scalar=64";
    class       volVectorField;
    location    "4.55";
    object      U;
}
// * * * * * * * * * * * * * * * * * * * * * * * * * * * * * * * * * * * * * //

dimensions      [0 1 -1 0 0 0 0];

internalField   nonuniform List<vector> 
9600
(
(0.720854 -0.00103439 0)
(1.34867 0.00851664 0)
(0.423775 -0.0157982 0)
(1.4042 0.00829761 0)
(0.840939 0.0074622 0)
(1.21215 0.00230879 0)
(0.668218 -0.000625342 0)
(1.28777 0.00285408 0)
(0.646698 0.00989135 0)
(1.25688 0.0247025 0)
(0.78075 0.0116708 0)
(1.18918 0.0171563 0)
(0.827056 0.0136209 0)
(1.1761 0.0152849 0)
(0.836358 0.00838754 0)
(1.12501 0.00889716 0)
(0.852122 0.00136619 0)
(1.10746 0.00134529 0)
(0.856462 -0.00117137 0)
(1.11995 0.00123098 0)
(0.726508 -0.0018205 0)
(1.34474 0.0111148 0)
(0.441771 -0.0167961 0)
(1.39633 0.00518115 0)
(0.851983 0.0087955 0)
(1.21363 0.00487956 0)
(0.68025 -0.00217773 0)
(1.28505 0.00338765 0)
(0.654716 0.0099659 0)
(1.2479 0.0237594 0)
(0.804353 0.0120405 0)
(1.17278 0.0170555 0)
(0.861581 0.0134386 0)
(1.14373 0.0152899 0)
(0.89467 0.00930687 0)
(1.07261 0.00865333 0)
(0.93203 0.00186508 0)
(1.03112 0.000821261 0)
(0.961318 -0.000987403 0)
(1.00704 0.000761073 0)
(0.739077 -0.00240268 0)
(1.33607 0.0135395 0)
(0.480833 -0.0177088 0)
(1.37619 0.00215703 0)
(0.877249 0.0101204 0)
(1.21273 0.00675448 0)
(0.709065 -0.0032331 0)
(1.27417 0.00429172 0)
(0.688427 0.00990912 0)
(1.2168 0.022115 0)
(0.859156 0.0128372 0)
(1.13281 0.0164562 0)
(0.921608 0.0136873 0)
(1.09379 0.0149759 0)
(0.961733 0.0106481 0)
(1.02725 0.00803789 0)
(0.982753 0.0028214 0)
(0.998507 8.12338e-05 0)
(0.98924 -0.000240174 0)
(0.994229 0.00091115 0)
(0.759705 -0.00303698 0)
(1.32039 0.0155346 0)
(0.544185 -0.0184308 0)
(1.33825 -0.000568314 0)
(0.917095 0.0111353 0)
(1.20448 0.00863345 0)
(0.758526 -0.00409931 0)
(1.24678 0.00495416 0)
(0.753846 0.0101779 0)
(1.16245 0.0201647 0)
(0.927084 0.0137861 0)
(1.08554 0.0156598 0)
(0.974451 0.0141762 0)
(1.05533 0.0144063 0)
(1.00173 0.0117024 0)
(1.01245 0.00786139 0)
(0.999042 0.00337456 0)
(0.996058 6.52463e-05 0)
(0.991947 -0.000102097 0)
(0.995658 0.00108738 0)
(0.788897 -0.00374403 0)
(1.29515 0.0172435 0)
(0.629967 -0.0188214 0)
(1.27963 -0.00335756 0)
(0.967076 0.0118975 0)
(1.18704 0.0104819 0)
(0.824069 -0.0046354 0)
(1.20027 0.00514763 0)
(0.836143 0.0110397 0)
(1.10199 0.018121 0)
(0.983012 0.0145543 0)
(1.052 0.0151145 0)
(1.00601 0.0144937 0)
(1.03754 0.0140001 0)
(1.01932 0.012394 0)
(1.01415 0.00812439 0)
(1.00522 0.00385976 0)
(0.998296 0.000202631 0)
(0.993602 0.000135036 0)
(0.994337 0.0012053 0)
(0.825451 -0.00447771 0)
(1.25876 0.0185466 0)
(0.726943 -0.0187723 0)
(1.20441 -0.00605178 0)
(1.01679 0.0123236 0)
(1.16337 0.0121652 0)
(0.892619 -0.00467846 0)
(1.14147 0.00500449 0)
(0.910682 0.0121602 0)
(1.05655 0.0163759 0)
(1.01663 0.0149516 0)
(1.03774 0.0149271 0)
(1.0218 0.0146356 0)
(1.03327 0.0138277 0)
(1.02708 0.0128416 0)
(1.01953 0.00854572 0)
(1.0103 0.00442939 0)
(1.00069 0.000487275 0)
(0.99495 0.000430643 0)
(0.993111 0.00141889 0)
(0.86577 -0.0051889 0)
(1.21252 0.0193544 0)
(0.818839 -0.0182452 0)
(1.1248 -0.0084812 0)
(1.05409 0.0122955 0)
(1.13872 0.0136089 0)
(0.95043 -0.00414618 0)
(1.08359 0.00477231 0)
(0.961711 0.0130515 0)
(1.03329 0.0151754 0)
(1.03157 0.0149951 0)
(1.03493 0.0149414 0)
(1.02981 0.0147173 0)
(1.03387 0.0137583 0)
(1.03087 0.0131504 0)
(1.02393 0.00899925 0)
(1.0146 0.00507885 0)
(1.00332 0.000954477 0)
(0.99585 0.000834534 0)
(0.992308 0.00178047 0)
(0.904468 -0.00581963 0)
(1.16153 0.0197054 0)
(0.893175 -0.0173301 0)
(1.05586 -0.0105459 0)
(1.07123 0.0117569 0)
(1.11655 0.0147766 0)
(0.990726 -0.00311473 0)
(1.03839 0.00461354 0)
(0.987822 0.0134502 0)
(1.02467 0.0144106 0)
(1.03498 0.0148244 0)
(1.03428 0.0149781 0)
(1.03308 0.0147706 0)
(1.03421 0.0137307 0)
(1.0318 0.0134045 0)
(1.02603 0.00945114 0)
(1.01733 0.00575503 0)
(1.00571 0.00158406 0)
(0.996831 0.00134222 0)
(0.991873 0.002273 0)
(0.936446 -0.00632139 0)
(1.11306 0.0197107 0)
(0.946064 -0.0162034 0)
(1.0077 -0.0121571 0)
(1.06797 0.0107959 0)
(1.09693 0.015625 0)
(1.01434 -0.00176572 0)
(1.01065 0.00461574 0)
(0.996099 0.0133885 0)
(1.01989 0.013859 0)
(1.03159 0.0145733 0)
(1.03104 0.0149582 0)
(1.0319 0.014796 0)
(1.03214 0.0137348 0)
(1.03009 0.0136255 0)
(1.02581 0.00986801 0)
(1.01839 0.00639908 0)
(1.00749 0.00230579 0)
(0.998096 0.00192519 0)
(0.992119 0.00288595 0)
(0.959086 -0.00667244 0)
(1.07337 0.0194878 0)
(0.980181 -0.0150431 0)
(0.981762 -0.0132509 0)
(1.05058 0.00959208 0)
(1.07837 0.0161028 0)
(1.02563 -0.000319461 0)
(0.998236 0.00481088 0)
(0.995097 0.0130954 0)
(1.0132 0.0134053 0)
(1.02402 0.014299 0)
(1.02461 0.0148682 0)
(1.02707 0.0147881 0)
(1.02776 0.0137366 0)
(1.02651 0.0137852 0)
(1.024 0.0102194 0)
(1.01829 0.00695722 0)
(1.0087 0.00305119 0)
(0.99964 0.0025449 0)
(0.993234 0.00359602 0)
(0.972901 -0.00687831 0)
(1.0452 0.0191163 0)
(1.00048 -0.0139667 0)
(0.97284 -0.0138485 0)
(1.0282 0.00834078 0)
(1.06033 0.0162036 0)
(1.02894 0.00104077 0)
(0.995664 0.00516927 0)
(0.991268 0.0128255 0)
(1.00468 0.0130378 0)
(1.01485 0.0139994 0)
(1.01672 0.0147079 0)
(1.0205 0.0147268 0)
(1.02239 0.0136851 0)
(1.02226 0.0138547 0)
(1.02153 0.0104948 0)
(1.01769 0.0073949 0)
(1.00958 0.00377096 0)
(1.0014 0.00317116 0)
(0.995139 0.00434633 0)
(0.980438 -0.00696585 0)
(1.02754 0.0186421 0)
(1.01153 -0.0130275 0)
(0.973693 -0.0140417 0)
(1.00859 0.00720384 0)
(1.0437 0.0159816 0)
(1.02742 0.00218383 0)
(0.997462 0.00561517 0)
(0.988287 0.0127239 0)
(0.997164 0.0127663 0)
(1.007 0.0136661 0)
(1.0098 0.0144825 0)
(1.01444 0.0145925 0)
(1.01751 0.0135664 0)
(1.01849 0.0138259 0)
(1.01919 0.0106857 0)
(1.01703 0.00771252 0)
(1.01031 0.00443626 0)
(1.00324 0.00378282 0)
(0.997546 0.00506235 0)
(0.984556 -0.00696941 0)
(1.01726 0.0180988 0)
(1.01674 -0.0122288 0)
(0.978494 -0.0139481 0)
(0.995421 0.00626697 0)
(1.02973 0.0155421 0)
(1.02328 0.00306292 0)
(0.99989 0.00606284 0)
(0.98748 0.012797 0)
(0.993014 0.0125815 0)
(1.00255 0.0133061 0)
(1.00559 0.0142163 0)
(1.01038 0.0143982 0)
(1.01409 0.0134046 0)
(1.0158 0.0137071 0)
(1.01738 0.0108001 0)
(1.01651 0.00792983 0)
(1.01092 0.00502857 0)
(1.00497 0.00436187 0)
(1.00007 0.00569315 0)
(0.987262 -0.0069187 0)
(1.01113 0.0175174 0)
(1.01846 -0.0115467 0)
(0.98388 -0.0136845 0)
(0.988568 0.0055448 0)
(1.01897 0.0150043 0)
(1.01821 0.00372804 0)
(1.00122 0.00644501 0)
(0.988586 0.0129623 0)
(0.992606 0.0124539 0)
(1.00179 0.0129378 0)
(1.00435 0.0139479 0)
(1.00867 0.0141863 0)
(1.01231 0.0132286 0)
(1.01428 0.0135273 0)
(1.01616 0.0108694 0)
(1.01611 0.00807998 0)
(1.01136 0.00553227 0)
(1.0064 0.00489465 0)
(1.00235 0.00623301 0)
(0.989479 -0.00683352 0)
(1.00702 0.0169244 0)
(1.01831 -0.0109538 0)
(0.988442 -0.0133402 0)
(0.986014 0.00501398 0)
(1.01114 0.0144619 0)
(1.01346 0.00423977 0)
(1.00125 0.00671924 0)
(0.990651 0.0131187 0)
(0.99472 0.0123483 0)
(1.0035 0.0125771 0)
(1.00517 0.0137134 0)
(1.00871 0.0139871 0)
(1.01181 0.0130685 0)
(1.01365 0.01333 0)
(1.01544 0.0109189 0)
(1.01579 0.008202 0)
(1.01161 0.00594727 0)
(1.00747 0.00538183 0)
(1.00421 0.00669554 0)
(0.991435 -0.00672479 0)
(1.00397 0.0163359 0)
(1.01731 -0.0104276 0)
(0.991845 -0.0129697 0)
(0.985688 0.00463572 0)
(1.00562 0.0139583 0)
(1.00972 0.0046486 0)
(1.00052 0.00687883 0)
(0.992801 0.0131983 0)
(0.997736 0.0122382 0)
(1.00608 0.0122339 0)
(1.00674 0.0135289 0)
(1.00955 0.0138126 0)
(1.01198 0.0129464 0)
(1.01351 0.0131451 0)
(1.01501 0.0109587 0)
(1.01553 0.00832229 0)
(1.01172 0.00629862 0)
(1.00825 0.00582861 0)
(1.00564 0.00708775 0)
(0.993114 -0.00659877 0)
(1.00166 0.0157588 0)
(1.01604 -0.00995101 0)
(0.994198 -0.0126002 0)
(0.98623 0.00437048 0)
(1.00182 0.0134997 0)
(1.00718 0.00498825 0)
(0.999687 0.00694383 0)
(0.994584 0.0131789 0)
(1.00051 0.0121133 0)
(1.00837 0.0119103 0)
(1.00809 0.013393 0)
(1.01038 0.0136632 0)
(1.01228 0.0128624 0)
(1.01353 0.0129861 0)
(1.01474 0.010985 0)
(1.01534 0.00845378 0)
(1.0118 0.00661544 0)
(1.00885 0.00623039 0)
(1.00676 0.00741661 0)
(0.994489 -0.00646013 0)
(0.99998 0.0151941 0)
(1.01479 -0.00950622 0)
(0.995736 -0.0122484 0)
(0.986962 0.00418163 0)
(0.999241 0.0130764 0)
(1.00566 0.00527612 0)
(0.999161 0.00694286 0)
(0.995931 0.0130701 0)
(1.00256 0.0119805 0)
(1.00991 0.0116061 0)
(1.00882 0.0132961 0)
(1.01079 0.0135313 0)
(1.01241 0.0127973 0)
(1.01351 0.0128592 0)
(1.01454 0.0109935 0)
(1.01521 0.00859453 0)
(1.01191 0.0069074 0)
(1.00936 0.00657902 0)
(1.00767 0.0076915 0)
(0.99556 -0.00631226 0)
(0.99884 0.0146389 0)
(1.01366 -0.00908096 0)
(0.996681 -0.011915 0)
(0.98762 0.00404298 0)
(0.997517 0.0126777 0)
(1.00484 0.00551818 0)
(0.99907 0.00690195 0)
(0.996948 0.0128962 0)
(1.00387 0.0118518 0)
(1.01069 0.0113233 0)
(1.00894 0.0132277 0)
(1.01072 0.0134088 0)
(1.0123 0.0127276 0)
(1.0134 0.012758 0)
(1.01438 0.0109886 0)
(1.01515 0.00872993 0)
(1.01208 0.00718039 0)
(1.00983 0.00688414 0)
(1.00846 0.00792808 0)
(0.996337 -0.00615794 0)
(0.998141 0.0140902 0)
(1.01271 -0.00866703 0)
(0.997217 -0.0115904 0)
(0.988138 0.00393653 0)
(0.996417 0.0122961 0)
(1.00446 0.00571688 0)
(0.999343 0.0068399 0)
(0.997734 0.0126824 0)
(1.0046 0.0117364 0)
(1.01091 0.0110631 0)
(1.00865 0.0131762 0)
(1.0103 0.0132929 0)
(1.01203 0.0126356 0)
(1.01321 0.0126679 0)
(1.01426 0.0109754 0)
(1.01511 0.00884766 0)
(1.01228 0.00744092 0)
(1.01024 0.00716378 0)
(1.00913 0.0081412 0)
(0.996847 -0.00599983 0)
(0.997784 0.0135451 0)
(1.01194 -0.00825409 0)
(0.9975 -0.0112716 0)
(0.988533 0.00384422 0)
(0.995801 0.0119242 0)
(1.00432 0.005874 0)
(0.99983 0.00676878 0)
(0.998325 0.012448 0)
(1.00493 0.0116417 0)
(1.01077 0.0108246 0)
(1.0082 0.0131284 0)
(1.00971 0.0131825 0)
(1.0117 0.0125106 0)
(1.01297 0.0125771 0)
(1.01416 0.0109559 0)
(1.01507 0.00894114 0)
(1.01246 0.00769098 0)
(1.01057 0.00742245 0)
(1.00969 0.00833241 0)
(0.997141 -0.00583936 0)
(0.997667 0.0130002 0)
(1.01131 -0.00783807 0)
(0.997667 -0.0109526 0)
(0.988844 0.00375364 0)
(0.99556 0.0115577 0)
(1.00429 0.00599341 0)
(1.00039 0.00669649 0)
(0.998726 0.0122047 0)
(1.005 0.01157 0)
(1.01045 0.010608 0)
(1.00775 0.0130716 0)
(1.00911 0.0130781 0)
(1.01139 0.0123494 0)
(1.01271 0.0124766 0)
(1.01405 0.0109311 0)
(1.01498 0.00900909 0)
(1.01261 0.00793191 0)
(1.0108 0.00766161 0)
(1.01015 0.00849644 0)
(0.997288 -0.00567652 0)
(0.997696 0.0124531 0)
(1.01077 -0.007417 0)
(0.997826 -0.0106298 0)
(0.989116 0.00365494 0)
(0.995579 0.0111964 0)
(1.00429 0.00607895 0)
(1.00094 0.00662745 0)
(0.998962 0.0119626 0)
(1.00493 0.0115137 0)
(1.01008 0.010413 0)
(1.00742 0.0129959 0)
(1.00857 0.0129837 0)
(1.01114 0.0121581 0)
(1.01245 0.0123582 0)
(1.01391 0.0109082 0)
(1.01484 0.0090574 0)
(1.01269 0.00816103 0)
(1.01094 0.00788936 0)
(1.0105 0.00862565 0)
(0.99735 -0.0055121 0)
(0.997798 0.0119034 0)
(1.01025 -0.00699319 0)
(0.998037 -0.0102988 0)
(0.989384 0.00354233 0)
(0.995747 0.0108417 0)
(1.00424 0.00613492 0)
(1.00142 0.00656458 0)
(0.999078 0.011727 0)
(1.0048 0.0114632 0)
(1.00973 0.0102373 0)
(1.00723 0.0128979 0)
(1.00813 0.012901 0)
(1.01097 0.0119466 0)
(1.01221 0.012218 0)
(1.01375 0.0108942 0)
(1.01465 0.00909385 0)
(1.01272 0.0083719 0)
(1.011 0.00811653 0)
(1.01078 0.00871406 0)
(0.997376 -0.00534713 0)
(0.997929 0.0113525 0)
(1.00973 -0.00657028 0)
(0.998313 -0.00995738 0)
(0.989671 0.00341301 0)
(0.995976 0.010495 0)
(1.00414 0.00616793 0)
(1.00183 0.00650757 0)
(0.999124 0.011498 0)
(1.00467 0.0114129 0)
(1.00945 0.0100756 0)
(1.00716 0.0127758 0)
(1.00779 0.0128299 0)
(1.01087 0.0117257 0)
(1.01201 0.0120635 0)
(1.01357 0.0108889 0)
(1.01443 0.00911649 0)
(1.0127 0.00855484 0)
(1.011 0.00835342 0)
(1.011 0.00877057 0)
(0.997394 -0.00518222 0)
(0.998064 0.0108023 0)
(1.00919 -0.0061508 0)
(0.998636 -0.00960399 0)
(0.989989 0.00326748 0)
(0.996212 0.0101576 0)
(1.00397 0.00618317 0)
(1.00215 0.00645271 0)
(0.999144 0.0112786 0)
(1.00457 0.0113579 0)
(1.00923 0.00991872 0)
(1.00718 0.012629 0)
(1.00753 0.0127678 0)
(1.01079 0.011504 0)
(1.01184 0.0119004 0)
(1.01337 0.0108937 0)
(1.01421 0.00912976 0)
(1.01266 0.00870455 0)
(1.01096 0.00861023 0)
(1.01116 0.00881915 0)
(0.997422 -0.00501721 0)
(0.998191 0.0102555 0)
(1.00864 -0.00573981 0)
(0.998977 -0.00923955 0)
(0.990342 0.00310872 0)
(0.996428 0.00983067 0)
(1.00378 0.00618449 0)
(1.00242 0.00639493 0)
(0.999165 0.0110686 0)
(1.00449 0.0112964 0)
(1.00907 0.00976527 0)
(1.00724 0.0124616 0)
(1.00732 0.0127081 0)
(1.01072 0.0112854 0)
(1.01173 0.0117232 0)
(1.01317 0.010909 0)
(1.01398 0.00914498 0)
(1.0126 0.00881551 0)
(1.0109 0.00888801 0)
(1.01126 0.00889466 0)
(0.997471 -0.00485331 0)
(0.998299 0.00971648 0)
(1.00811 -0.00534034 0)
(0.999309 -0.00886471 0)
(0.990731 0.00293586 0)
(0.996612 0.00951304 0)
(1.00359 0.00617701 0)
(1.00263 0.00633082 0)
(0.999204 0.0108653 0)
(1.00441 0.0112303 0)
(1.00896 0.00961425 0)
(1.00733 0.0122781 0)
(1.00714 0.0126501 0)
(1.01063 0.011076 0)
(1.01164 0.011528 0)
(1.01296 0.0109334 0)
(1.01376 0.00916721 0)
(1.01255 0.0088736 0)
(1.01083 0.00916246 0)
(1.01131 0.0090391 0)
(0.997546 -0.00469103 0)
(0.998381 0.00918568 0)
(1.00759 -0.00495348 0)
(0.999615 -0.00847764 0)
(0.991153 0.00275172 0)
(0.996761 0.00920366 0)
(1.00339 0.0061641 0)
(1.00282 0.00625333 0)
(0.999268 0.0106647 0)
(1.00432 0.0111662 0)
(1.00889 0.00946487 0)
(1.00742 0.0120792 0)
(1.00696 0.0126007 0)
(1.01052 0.010882 0)
(1.01158 0.0113155 0)
(1.01276 0.0109688 0)
(1.01354 0.00920756 0)
(1.01251 0.00887518 0)
(1.01078 0.00938665 0)
(1.01129 0.00927773 0)
(0.997645 -0.00452982 0)
(0.998438 0.00866602 0)
(1.0071 -0.00458439 0)
(0.999889 -0.00808126 0)
(0.991604 0.00255969 0)
(0.996881 0.00889873 0)
(1.00321 0.00615128 0)
(1.00297 0.00615776 0)
(0.999359 0.0104602 0)
(1.00421 0.0111036 0)
(1.00883 0.00931719 0)
(1.00751 0.0118629 0)
(1.00679 0.0125668 0)
(1.01038 0.0107105 0)
(1.01154 0.0110819 0)
(1.01256 0.0110071 0)
(1.01331 0.00928215 0)
(1.01249 0.00884147 0)
(1.01077 0.00951652 0)
(1.01123 0.00957961 0)
(0.997766 -0.00437134 0)
(0.998471 0.00816065 0)
(1.00663 -0.00423193 0)
(1.00013 -0.00768209 0)
(0.992075 0.00236373 0)
(0.996981 0.00859095 0)
(1.00303 0.00614577 0)
(1.0031 0.00604687 0)
(0.999473 0.0102467 0)
(1.00409 0.0110389 0)
(1.00879 0.00917009 0)
(1.00761 0.0116193 0)
(1.00662 0.0125407 0)
(1.0102 0.0105678 0)
(1.01151 0.0108261 0)
(1.01237 0.0110342 0)
(1.01307 0.00939999 0)
(1.01246 0.00881522 0)
(1.0108 0.00954789 0)
(1.01114 0.00986592 0)
(0.9979 -0.00421481 0)
(0.998486 0.00766843 0)
(1.00618 -0.00389612 0)
(1.00034 -0.00727954 0)
(0.992559 0.00217038 0)
(0.99707 0.00827418 0)
(1.00284 0.00615327 0)
(1.00322 0.00592867 0)
(0.999606 0.0100196 0)
(1.00396 0.0109788 0)
(1.00874 0.0090297 0)
(1.00773 0.0113409 0)
(1.00645 0.0125074 0)
(1.01 0.0104602 0)
(1.01149 0.0105569 0)
(1.01219 0.0110379 0)
(1.01281 0.00954405 0)
(1.01241 0.0088194 0)
(1.01086 0.00951759 0)
(1.01107 0.0100627 0)
(0.998043 -0.00405995 0)
(0.998488 0.00719239 0)
(1.00574 -0.00358053 0)
(1.00053 -0.00687021 0)
(0.993045 0.00198427 0)
(0.997158 0.00794453 0)
(1.00266 0.00617138 0)
(1.00331 0.00581115 0)
(0.999752 0.00977148 0)
(1.00382 0.0109282 0)
(1.00869 0.00890631 0)
(1.00786 0.0110328 0)
(1.00629 0.0124618 0)
(1.00975 0.0103945 0)
(1.01147 0.0102834 0)
(1.01205 0.011016 0)
(1.01253 0.00969711 0)
(1.01234 0.00884021 0)
(1.01095 0.00947062 0)
(1.01103 0.0101539 0)
(0.998189 -0.00390686 0)
(0.998484 0.00672902 0)
(1.0053 -0.0032777 0)
(1.0007 -0.00646281 0)
(0.993528 0.0018101 0)
(0.997249 0.00759919 0)
(1.00248 0.00618747 0)
(1.00338 0.00570091 0)
(0.999909 0.00949784 0)
(1.00367 0.0108796 0)
(1.00861 0.00880728 0)
(1.008 0.0107022 0)
(1.00614 0.0124025 0)
(1.00948 0.0103766 0)
(1.01145 0.0100108 0)
(1.01192 0.0109674 0)
(1.01224 0.00986979 0)
(1.01225 0.00885916 0)
(1.01104 0.00941574 0)
(1.01103 0.010177 0)
(0.998334 -0.00375474 0)
(0.998478 0.00627822 0)
(1.00487 -0.00298379 0)
(1.00085 -0.00607241 0)
(0.994001 0.00165388 0)
(0.997344 0.00723232 0)
(1.00229 0.00619339 0)
(1.00344 0.00560306 0)
(1.00007 0.00919819 0)
(1.00352 0.0108147 0)
(1.0085 0.00873604 0)
(1.00815 0.0103486 0)
(1.00601 0.0123124 0)
(1.00917 0.0104053 0)
(1.01141 0.00974386 0)
(1.01184 0.0108737 0)
(1.01194 0.0100768 0)
(1.01211 0.00889322 0)
(1.01113 0.00932595 0)
(1.01107 0.0101622 0)
(0.998476 -0.00360222 0)
(0.998471 0.00583963 0)
(1.00444 -0.00269905 0)
(1.00099 -0.0057061 0)
(0.99446 0.00152588 0)
(0.997443 0.00685289 0)
(1.00211 0.006187 0)
(1.00347 0.00551937 0)
(1.00024 0.00887915 0)
(1.00337 0.0107217 0)
(1.00836 0.00869677 0)
(1.0083 0.00997955 0)
(1.0059 0.0121728 0)
(1.00882 0.0104726 0)
(1.01135 0.00949786 0)
(1.01179 0.0107103 0)
(1.01164 0.0103005 0)
(1.01193 0.00898931 0)
(1.01122 0.00919498 0)
(1.01114 0.0100933 0)
(0.998612 -0.00345032 0)
(0.998466 0.00541047 0)
(1.00401 -0.00241056 0)
(1.00111 -0.00536931 0)
(0.994904 0.00142445 0)
(0.997546 0.00647165 0)
(1.00193 0.00616581 0)
(1.00349 0.00546335 0)
(1.00042 0.00855527 0)
(1.00322 0.010595 0)
(1.00819 0.00868321 0)
(1.00845 0.00961058 0)
(1.00581 0.0119795 0)
(1.00845 0.0105707 0)
(1.01126 0.00929735 0)
(1.0118 0.0104738 0)
(1.01135 0.0104972 0)
(1.01168 0.00917421 0)
(1.01128 0.00906891 0)
(1.01127 0.00994024 0)
(0.998743 -0.00329493 0)
(0.998464 0.00498249 0)
(1.00358 -0.00211121 0)
(1.00121 -0.0050704 0)
(0.995331 0.00134344 0)
(0.997651 0.00609305 0)
(1.00176 0.00610937 0)
(1.00349 0.00543752 0)
(1.00059 0.00823897 0)
(1.00307 0.0104373 0)
(1.00798 0.00869312 0)
(1.00858 0.00926599 0)
(1.00577 0.0117403 0)
(1.00805 0.0106868 0)
(1.01112 0.0091576 0)
(1.01183 0.0101754 0)
(1.01111 0.0106219 0)
(1.01137 0.00942512 0)
(1.01128 0.00900805 0)
(1.01142 0.00971856 0)
(0.998865 -0.0031362 0)
(0.998467 0.00455453 0)
(1.00316 -0.00180136 0)
(1.00129 -0.00481455 0)
(0.995741 0.00127938 0)
(0.997757 0.00573713 0)
(1.00158 0.0060097 0)
(1.00346 0.00542491 0)
(1.00075 0.00793486 0)
(1.00294 0.0102429 0)
(1.00774 0.00871215 0)
(1.00869 0.00895536 0)
(1.00575 0.0114601 0)
(1.00764 0.010803 0)
(1.01091 0.00908708 0)
(1.01189 0.00984223 0)
(1.01093 0.0106562 0)
(1.01103 0.00970326 0)
(1.01119 0.00904095 0)
(1.01157 0.0094885 0)
(0.99898 -0.00297422 0)
(0.998476 0.00412721 0)
(1.00273 -0.00147663 0)
(1.00136 -0.00459957 0)
(0.996137 0.00122162 0)
(0.99786 0.00541338 0)
(1.00142 0.00586381 0)
(1.00342 0.00540975 0)
(1.00091 0.00765682 0)
(1.00282 0.0100179 0)
(1.00747 0.0087194 0)
(1.00877 0.00866921 0)
(1.00578 0.0111352 0)
(1.00723 0.0108983 0)
(1.01063 0.00908562 0)
(1.01195 0.00950015 0)
(1.01081 0.0105939 0)
(1.01068 0.00997486 0)
(1.01101 0.00915225 0)
(1.01167 0.00930279 0)
(0.999087 -0.00280594 0)
(0.998493 0.00369123 0)
(1.00231 -0.00113708 0)
(1.00141 -0.00440512 0)
(0.996521 0.00115518 0)
(0.997957 0.00513518 0)
(1.00126 0.00568015 0)
(1.00336 0.00537749 0)
(1.00106 0.00740632 0)
(1.00271 0.0097777 0)
(1.00718 0.00871283 0)
(1.00882 0.00840907 0)
(1.00585 0.0107767 0)
(1.00684 0.0109638 0)
(1.01028 0.00915517 0)
(1.01199 0.00917092 0)
(1.01077 0.0104205 0)
(1.01034 0.010211 0)
(1.01075 0.00931851 0)
(1.0117 0.00917977 0)
(0.999184 -0.00263096 0)
(0.99852 0.00324773 0)
(1.00189 -0.000798908 0)
(1.00143 -0.00420403 0)
(0.996896 0.00106237 0)
(0.998048 0.00491323 0)
(1.0011 0.00548756 0)
(1.00329 0.00532489 0)
(1.00119 0.00717577 0)
(1.00261 0.0095321 0)
(1.00687 0.00869458 0)
(1.00883 0.00817412 0)
(1.00595 0.0103906 0)
(1.00648 0.0109834 0)
(1.00986 0.00928983 0)
(1.01198 0.00889144 0)
(1.0108 0.010132 0)
(1.01004 0.0103797 0)
(1.01041 0.00954093 0)
(1.01163 0.00913111 0)
(0.999272 -0.00245126 0)
(0.998559 0.00280348 0)
(1.00148 -0.000470701 0)
(1.00143 -0.0039884 0)
(0.997263 0.000924865 0)
(0.998136 0.0047289 0)
(1.00094 0.00529516 0)
(1.00321 0.00524304 0)
(1.00132 0.00696616 0)
(1.00252 0.00929516 0)
(1.00654 0.00867147 0)
(1.00879 0.00796004 0)
(1.00607 0.00997722 0)
(1.00617 0.0109381 0)
(1.00939 0.00946374 0)
(1.0119 0.00870215 0)
(1.01089 0.00975277 0)
(1.00982 0.0104244 0)
(1.01002 0.00979486 0)
(1.01144 0.00916329 0)
(0.999353 -0.00226512 0)
(0.99861 0.0023536 0)
(1.00108 -0.000154589 0)
(1.0014 -0.0037374 0)
(0.997628 0.000725656 0)
(0.998225 0.00457361 0)
(1.00077 0.00512649 0)
(1.00313 0.00512004 0)
(1.00143 0.00675787 0)
(1.00245 0.00906641 0)
(1.00619 0.00864714 0)
(1.00871 0.00777175 0)
(1.00622 0.00954412 0)
(1.00592 0.010823 0)
(1.00888 0.00964197 0)
(1.01172 0.00862152 0)
(1.01101 0.00935108 0)
(1.00971 0.0103136 0)
(1.00963 0.0100172 0)
(1.01113 0.0092763 0)
(0.999424 -0.00207336 0)
(0.998674 0.00190558 0)
(1.0007 0.000127044 0)
(1.00134 -0.00342155 0)
(0.997987 0.000478453 0)
(0.998326 0.00443649 0)
(1.00059 0.00499853 0)
(1.00303 0.00495981 0)
(1.00155 0.00652885 0)
(1.00238 0.00883862 0)
(1.00582 0.00862231 0)
(1.00858 0.00762142 0)
(1.00638 0.00909797 0)
(1.00574 0.0106328 0)
(1.00836 0.00978529 0)
(1.01144 0.00862371 0)
(1.01111 0.0089933 0)
(1.0097 0.010071 0)
(1.00927 0.0101443 0)
(1.01074 0.00943992 0)
(0.999487 -0.00187983 0)
(0.998753 0.00146994 0)
(1.00035 0.00037405 0)
(1.00124 -0.00304719 0)
(0.998336 0.000208659 0)
(0.998445 0.00428479 0)
(1.00041 0.00492554 0)
(1.00291 0.00479617 0)
(1.00166 0.00627141 0)
(1.00234 0.00860236 0)
(1.00545 0.00859574 0)
(1.00839 0.00751783 0)
(1.00653 0.00865109 0)
(1.00563 0.0103659 0)
(1.00785 0.00987706 0)
(1.01106 0.00867642 0)
(1.01115 0.00870805 0)
(1.00976 0.00974834 0)
(1.009 0.0101499 0)
(1.01029 0.00959673 0)
(0.999541 -0.00168424 0)
(0.998848 0.00104893 0)
(1.00004 0.000576593 0)
(1.00111 -0.00263538 0)
(0.99867 -4.91398e-05 0)
(0.998595 0.0040942 0)
(1.00022 0.00491342 0)
(1.00278 0.00467258 0)
(1.00178 0.00598187 0)
(1.00232 0.00833285 0)
(1.00508 0.0085603 0)
(1.00813 0.00746519 0)
(1.00668 0.00823048 0)
(1.0056 0.0100206 0)
(1.00737 0.00990309 0)
(1.01062 0.0087597 0)
(1.01111 0.00849837 0)
(1.00988 0.00938745 0)
(1.00882 0.0100427 0)
(1.00985 0.00969689 0)
(0.999587 -0.00149054 0)
(0.998955 0.000657051 0)
(0.999767 0.00072023 0)
(1.00095 -0.002184 0)
(0.998981 -0.000277509 0)
(0.998779 0.00384741 0)
(1.00004 0.00492494 0)
(1.00261 0.00459958 0)
(1.00189 0.00568471 0)
(1.00234 0.00801959 0)
(1.00472 0.00849959 0)
(1.00782 0.00745946 0)
(1.00678 0.00787132 0)
(1.00563 0.00961091 0)
(1.00696 0.00983941 0)
(1.01012 0.00884587 0)
(1.01098 0.00836883 0)
(1.01 0.00901864 0)
(1.00874 0.00983902 0)
(1.00944 0.00971602 0)
(0.999627 -0.00130417 0)
(0.999074 0.000308429 0)
(0.999546 0.000800893 0)
(1.00076 -0.00171298 0)
(0.999261 -0.000456046 0)
(0.999002 0.00352743 0)
(0.999879 0.00494031 0)
(1.00242 0.00459303 0)
(1.00198 0.00541471 0)
(1.0024 0.00766305 0)
(1.0044 0.00838857 0)
(1.00746 0.00748295 0)
(1.00682 0.00759004 0)
(1.0057 0.00917272 0)
(1.00662 0.00967874 0)
(1.00961 0.00888877 0)
(1.01076 0.00831122 0)
(1.0101 0.00868251 0)
(1.00874 0.00955563 0)
(1.00911 0.00965593 0)
(0.999661 -0.00112857 0)
(0.9992 1.18036e-05 0)
(0.999378 0.000805612 0)
(1.00056 -0.00124396 0)
(0.9995 -0.000546465 0)
(0.999263 0.00313231 0)
(0.999762 0.00492881 0)
(1.0022 0.00466617 0)
(1.00205 0.00519478 0)
(1.00248 0.00726607 0)
(1.00413 0.00821102 0)
(1.00707 0.00750745 0)
(1.00681 0.00738251 0)
(1.0058 0.00874466 0)
(1.00635 0.00944968 0)
(1.00911 0.00886651 0)
(1.01046 0.00828635 0)
(1.01015 0.008417 0)
(1.00881 0.00922209 0)
(1.00885 0.00952253 0)
(0.999691 -0.000969023 0)
(0.999328 -0.000233781 0)
(0.999263 0.000738743 0)
(1.00036 -0.000787412 0)
(0.999688 -0.000542643 0)
(0.999554 0.00269915 0)
(0.999707 0.00485217 0)
(1.00196 0.00479074 0)
(1.00207 0.0050502 0)
(1.00259 0.00686269 0)
(1.00391 0.00797314 0)
(1.00668 0.00750893 0)
(1.00672 0.00723645 0)
(1.0059 0.00834217 0)
(1.00615 0.0091781 0)
(1.00864 0.00879108 0)
(1.01011 0.00824873 0)
(1.01012 0.00821687 0)
(1.0089 0.00887795 0)
(1.00869 0.00931017 0)
(0.999717 -0.000826837 0)
(0.999453 -0.000430165 0)
(0.999202 0.000606502 0)
(1.00017 -0.000367626 0)
(0.999822 -0.000441027 0)
(0.999862 0.0022784 0)
(0.999725 0.00469397 0)
(1.00174 0.00492528 0)
(1.00204 0.00498583 0)
(1.00269 0.00648214 0)
(1.00376 0.00766715 0)
(1.0063 0.00745971 0)
(1.00658 0.00713801 0)
(1.00598 0.00797967 0)
(1.00601 0.00887348 0)
(1.00821 0.00868209 0)
(1.00973 0.0081945 0)
(1.01003 0.00805689 0)
(1.00898 0.00856311 0)
(1.00861 0.00902603 0)
(0.999741 -0.000704935 0)
(0.999569 -0.000567039 0)
(0.999192 0.000432845 0)
(1.00001 6.8208e-06 0)
(0.9999 -0.000253971 0)
(1.00017 0.00191077 0)
(0.99982 0.00442867 0)
(1.00154 0.00502922 0)
(1.00197 0.00499905 0)
(1.00278 0.00616181 0)
(1.00366 0.0073177 0)
(1.00597 0.00734615 0)
(1.0064 0.00706009 0)
(1.00604 0.00767006 0)
(1.00593 0.00854016 0)
(1.00784 0.00852652 0)
(1.00934 0.00812806 0)
(1.00988 0.00791692 0)
(1.00903 0.00829294 0)
(1.00859 0.00870505 0)
(0.999763 -0.000606034 0)
(0.999674 -0.000639635 0)
(0.999227 0.000244532 0)
(0.999878 0.000308952 0)
(0.999929 5.75411e-06 0)
(1.00045 0.00163868 0)
(0.999984 0.00407143 0)
(1.00139 0.00506292 0)
(1.00187 0.00505565 0)
(1.00283 0.0059094 0)
(1.0036 0.00696611 0)
(1.00568 0.0071754 0)
(1.0062 0.00697076 0)
(1.00606 0.0074095 0)
(1.00588 0.00820728 0)
(1.00752 0.00831762 0)
(1.00896 0.00803685 0)
(1.00968 0.00778816 0)
(1.00903 0.00806035 0)
(1.00859 0.00839831 0)
(0.999784 -0.000528409 0)
(0.999764 -0.000659136 0)
(0.999296 6.26842e-05 0)
(0.999797 0.000520164 0)
(0.999922 0.00030737 0)
(1.00069 0.00148147 0)
(1.0002 0.00367538 0)
(1.00132 0.00500064 0)
(1.00174 0.00511631 0)
(1.00285 0.00572057 0)
(1.00357 0.00663015 0)
(1.00545 0.00695728 0)
(1.006 0.00685341 0)
(1.00606 0.00717238 0)
(1.00584 0.00789573 0)
(1.00726 0.00808065 0)
(1.0086 0.00790615 0)
(1.00945 0.00765741 0)
(1.00899 0.00784247 0)
(1.00857 0.00812785 0)
(0.999804 -0.000470047 0)
(0.999839 -0.0006338 0)
(0.999389 -0.000103816 0)
(0.999762 0.000644919 0)
(0.999893 0.000601848 0)
(1.00086 0.00144063 0)
(1.00044 0.00329166 0)
(1.00132 0.00482136 0)
(1.00162 0.00514916 0)
(1.00282 0.00559772 0)
(1.00353 0.00632825 0)
(1.00526 0.00671099 0)
(1.00581 0.00671227 0)
(1.00603 0.00694405 0)
(1.00582 0.00758954 0)
(1.00704 0.00783156 0)
(1.00826 0.00773923 0)
(1.0092 0.00751216 0)
(1.00892 0.00762257 0)
(1.00854 0.00787517 0)
(0.999825 -0.000424501 0)
(0.999897 -0.000578237 0)
(0.999494 -0.000242415 0)
(0.999774 0.000696726 0)
(0.999862 0.000865014 0)
(1.00099 0.00148973 0)
(1.00068 0.0029744 0)
(1.00139 0.00454376 0)
(1.00154 0.00511867 0)
(1.00276 0.00550683 0)
(1.00349 0.00606942 0)
(1.0051 0.00645018 0)
(1.00563 0.00654975 0)
(1.00598 0.00673471 0)
(1.00581 0.0072858 0)
(1.00687 0.00756626 0)
(1.00795 0.00755164 0)
(1.00894 0.007356 0)
(1.00882 0.00740735 0)
(1.0085 0.00761844 0)
(0.999844 -0.000393195 0)
(0.999939 -0.000490638 0)
(0.999599 -0.000333359 0)
(0.999828 0.000686471 0)
(0.999839 0.00107474 0)
(1.00106 0.00158163 0)
(1.00089 0.00273886 0)
(1.0015 0.00422732 0)
(1.0015 0.00501259 0)
(1.00268 0.00541801 0)
(1.00342 0.00585686 0)
(1.00497 0.00619262 0)
(1.00547 0.0063588 0)
(1.00591 0.00653711 0)
(1.00579 0.00699981 0)
(1.00672 0.00727678 0)
(1.00768 0.00733446 0)
(1.00867 0.00718336 0)
(1.0087 0.0071993 0)
(1.00845 0.00735568 0)
(0.999863 -0.000368994 0)
(0.999968 -0.000394059 0)
(0.999691 -0.000371085 0)
(0.999912 0.000639387 0)
(0.999834 0.00122061 0)
(1.00109 0.00169276 0)
(1.00106 0.00257658 0)
(1.00165 0.00391834 0)
(1.0015 0.00483241 0)
(1.00261 0.00531139 0)
(1.00333 0.005674 0)
(1.00484 0.00595392 0)
(1.00532 0.00614783 0)
(1.00584 0.00632883 0)
(1.00575 0.00673952 0)
(1.0066 0.0069881 0)
(1.00744 0.00708508 0)
(1.00841 0.00698774 0)
(1.00854 0.00699256 0)
(1.00839 0.00709838 0)
(0.999881 -0.000345406 0)
(0.999987 -0.000309783 0)
(0.999769 -0.000359026 0)
(1.00001 0.000582077 0)
(0.999851 0.00130444 0)
(1.00109 0.00180097 0)
(1.00118 0.00248709 0)
(1.0018 0.00364064 0)
(1.00155 0.00460182 0)
(1.00255 0.00517191 0)
(1.00323 0.00550115 0)
(1.00471 0.005729 0)
(1.00519 0.00593326 0)
(1.00576 0.00610634 0)
(1.0057 0.0064832 0)
(1.00648 0.00672205 0)
(1.00723 0.00682258 0)
(1.00817 0.00676135 0)
(1.00837 0.00677077 0)
(1.00831 0.00683655 0)
(0.999897 -0.000323059 0)
(1 -0.00023439 0)
(0.99983 -0.00031378 0)
(1.00012 0.000522899 0)
(0.999889 0.00133762 0)
(1.00108 0.00188911 0)
(1.00125 0.00245086 0)
(1.00194 0.003409 0)
(1.00164 0.00435037 0)
(1.00251 0.00499556 0)
(1.00312 0.00533396 0)
(1.00457 0.00551354 0)
(1.00505 0.00571541 0)
(1.00567 0.00588469 0)
(1.00566 0.00621714 0)
(1.00636 0.00646108 0)
(1.00702 0.00657408 0)
(1.00794 0.00651608 0)
(1.00819 0.00653341 0)
(1.00821 0.00656611 0)
(0.999911 -0.000299878 0)
(1.00001 -0.000170513 0)
(0.999874 -0.000244867 0)
(1.00023 0.00047605 0)
(0.999949 0.0013316 0)
(1.00107 0.00195282 0)
(1.0013 0.0024367 0)
(1.00205 0.00322946 0)
(1.00174 0.00410048 0)
(1.0025 0.00478465 0)
(1.00302 0.00516191 0)
(1.00442 0.00531057 0)
(1.00492 0.00548538 0)
(1.00558 0.00565684 0)
(1.0056 0.00595185 0)
(1.00625 0.00617754 0)
(1.00682 0.00632993 0)
(1.0077 0.0062779 0)
(1.00799 0.00629321 0)
(1.00808 0.0063078 0)
(0.999922 -0.000274025 0)
(1.00002 -0.000119959 0)
(0.999903 -0.00016435 0)
(1.00033 0.000453479 0)
(1.00003 0.00129668 0)
(1.00106 0.00198872 0)
(1.00131 0.00242808 0)
(1.00213 0.00309355 0)
(1.00183 0.00387129 0)
(1.00252 0.00455429 0)
(1.00292 0.0049727 0)
(1.00427 0.00512069 0)
(1.00478 0.00525992 0)
(1.00548 0.00541318 0)
(1.00553 0.00569404 0)
(1.00616 0.00588141 0)
(1.00664 0.00605136 0)
(1.00746 0.00603553 0)
(1.00779 0.0060396 0)
(1.00794 0.00604882 0)
(0.999932 -0.000245903 0)
(1.00003 -7.91186e-05 0)
(0.999922 -8.18363e-05 0)
(1.00041 0.000452742 0)
(1.00011 0.0012518 0)
(1.00106 0.00199562 0)