/*--------------------------------*- C++ -*----------------------------------*\
| =========                 |                                                 |
| \\      /  F ield         | OpenFOAM: The Open Source CFD Toolbox           |
|  \\    /   O peration     | Version:  2506                                  |
|   \\  /    A nd           | Website:  www.openfoam.com                      |
|    \\/     M anipulation  |                                                 |
\*---------------------------------------------------------------------------*/
FoamFile
{
    version     2.0;
    format      ascii;
    arch        "LSB;label=32;scalar=64";
    class       surfaceScalarField;
    location    "6.75";
    object      phi;
}
// * * * * * * * * * * * * * * * * * * * * * * * * * * * * * * * * * * * * * //

dimensions      [0 3 -1 0 0 0 0];

oriented        oriented;

internalField   nonuniform List<scalar> 
19000
(
1.16591e-06
2.13089e-07
1.15809e-06
-1.01615e-06
1.16395e-06
9.00215e-07
1.14209e-06
-4.07489e-07
1.16124e-06
1.55011e-06
1.09072e-06
-1.56816e-06
1.16931e-06
1.05425e-06
1.14832e-06
-1.05518e-06
1.15142e-06
-8.93279e-07
1.19721e-06
5.61668e-07
1.17088e-06
3.73282e-07
1.18645e-06
8.73172e-07
1.17661e-06
7.73116e-07
1.15068e-06
2.49992e-07
1.15665e-06
8.20982e-07
1.1056e-06
-2.50182e-07
1.13285e-06
5.16367e-07
1.08526e-06
-3.84578e-07
1.10703e-06
9.91214e-08
-5.59762e-07
1.00815e-06
1.22197e-06
2.15375e-07
1.21422e-06
-1.0084e-06
1.21765e-06
8.96793e-07
1.19891e-06
-3.8875e-07
1.21343e-06
1.53559e-06
1.14562e-06
-1.50035e-06
1.21525e-06
9.84627e-07
1.1987e-06
-1.03864e-06
1.20094e-06
-8.95518e-07
1.26205e-06
5.00561e-07
1.22722e-06
4.08109e-07
1.2443e-06
8.56091e-07
1.23237e-06
7.85045e-07
1.21093e-06
2.7144e-07
1.20517e-06
8.26734e-07
1.17304e-06
-2.18046e-07
1.17948e-06
5.09927e-07
1.16469e-06
-3.69792e-07
1.15971e-06
1.04101e-07
-5.13456e-07
1.11341e-06
1.28122e-06
2.16943e-07
1.27259e-06
-9.99778e-07
1.27603e-06
8.93359e-07
1.25768e-06
-3.70404e-07
1.27045e-06
1.52282e-06
1.20706e-06
-1.43696e-06
1.26622e-06
9.25467e-07
1.25974e-06
-1.03216e-06
1.25788e-06
-8.93659e-07
1.32033e-06
4.38111e-07
1.29014e-06
4.383e-07
1.29995e-06
8.46285e-07
1.28993e-06
7.95061e-07
1.26819e-06
2.93186e-07
1.26604e-06
8.28886e-07
1.2404e-06
-1.9241e-07
1.25298e-06
4.97347e-07
1.24142e-06
-3.58237e-07
1.24793e-06
9.75916e-08
-4.72337e-07
1.20682e-06
1.34349e-06
2.17556e-07
1.3342e-06
-9.90483e-07
1.33806e-06
8.89496e-07
1.32077e-06
-3.53119e-07
1.33172e-06
1.51187e-06
1.27608e-06
-1.38132e-06
1.3221e-06
8.79446e-07
1.32852e-06
-1.03858e-06
1.31781e-06
-8.82949e-07
1.37216e-06
3.83761e-07
1.35434e-06
4.56126e-07
1.35328e-06
8.47345e-07
1.34577e-06
8.02574e-07
1.32615e-06
3.12796e-07
1.32731e-06
8.27734e-07
1.30752e-06
-1.72626e-07
1.32274e-06
4.82126e-07
1.30914e-06
-3.44635e-07
1.31937e-06
8.73622e-08
-4.25575e-07
1.27261e-06
1.4087e-06
2.17212e-07
1.39899e-06
-9.8078e-07
1.40358e-06
8.84906e-07
1.38797e-06
-3.37501e-07
1.39774e-06
1.5021e-06
1.35126e-06
-1.33484e-06
1.38501e-06
8.45702e-07
1.3996e-06
-1.05318e-06
1.38197e-06
-8.65318e-07
1.42282e-06
3.42917e-07
1.4181e-06
4.60842e-07
1.41102e-06
8.54428e-07
1.40499e-06
8.08598e-07
1.38883e-06
3.28958e-07
1.39512e-06
8.21448e-07
1.37863e-06
-1.56138e-07
1.39743e-06
4.63322e-07
1.38073e-06
-3.2793e-07
1.3933e-06
7.47879e-08
-3.76392e-07
1.34412e-06
1.47672e-06
2.16172e-07
1.46678e-06
-9.70843e-07
1.47214e-06
8.79541e-07
1.4587e-06
-3.2406e-07
1.46843e-06
1.49237e-06
1.43065e-06
-1.29705e-06
1.45506e-06
8.21287e-07
1.46974e-06
-1.06786e-06
1.45036e-06
-8.45943e-07
1.47891e-06
3.14367e-07
1.48284e-06
4.56919e-07
1.47611e-06
8.61158e-07
1.47205e-06
8.12651e-07
1.4594e-06
3.41608e-07
1.46941e-06
8.11443e-07
1.45454e-06
-1.41273e-07
1.47519e-06
4.42678e-07
1.45469e-06
-3.07428e-07
1.46853e-06
6.09391e-08
-3.25777e-07
1.41792e-06
1.54748e-06
2.14908e-07
1.53732e-06
-9.60683e-07
1.54347e-06
8.73393e-07
1.53257e-06
-3.13165e-07
1.54335e-06
1.48159e-06
1.51271e-06
-1.26642e-06
1.53125e-06
8.02746e-07
1.53921e-06
-1.07581e-06
1.52151e-06
-8.28249e-07
1.54241e-06
2.9347e-07
1.55078e-06
4.4855e-07
1.54789e-06
8.64046e-07
1.54633e-06
8.14212e-07
1.53667e-06
3.51263e-07
1.54882e-06
7.99293e-07
1.53367e-06
-1.26124e-07
1.55575e-06
4.20597e-07
1.53148e-06
-2.83149e-07
1.54622e-06
4.61981e-08
-2.74923e-07
1.49536e-06
1.6211e-06
2.13941e-07
1.61059e-06
-9.50176e-07
1.61772e-06
8.66259e-07
1.60951e-06
-3.04948e-07
1.62195e-06
1.46915e-06
1.59655e-06
-1.24103e-06
1.61228e-06
7.87022e-07
1.60985e-06
-1.07339e-06
1.59409e-06
-8.12489e-07
1.61161e-06
2.75955e-07
1.6226e-06
4.37564e-07
1.62426e-06
8.62378e-07
1.62494e-06
8.13539e-07
1.61767e-06
3.58531e-07
1.63138e-06
7.85579e-07
1.61506e-06
-1.09802e-07
1.63851e-06
3.9715e-07
1.61097e-06
-2.55606e-07
1.62619e-06
3.09708e-08
-2.24962e-07
1.57623e-06
1.69784e-06
2.13678e-07
1.68682e-06
-9.39155e-07
1.69535e-06
8.57722e-07
1.68964e-06
-2.99229e-07
1.70384e-06
1.45495e-06
1.68167e-06
-1.21885e-06
1.69695e-06
7.71741e-07
1.68355e-06
-1.05999e-06
1.66806e-06
-7.97003e-07
1.68421e-06
2.59808e-07
1.69729e-06
4.24485e-07
1.70294e-06
8.5673e-07
1.70553e-06
8.10949e-07
1.70037e-06
3.63689e-07
1.71601e-06
7.6994e-07
1.69855e-06
-9.23431e-08
1.72345e-06
3.72254e-07
1.69334e-06
-2.25499e-07
1.70853e-06
1.5784e-08
-1.76911e-07
1.66048e-06
1.77808e-06
2.14321e-07
1.76644e-06
-9.27516e-07
1.77679e-06
8.47372e-07
1.77316e-06
-2.95599e-07
1.78897e-06
1.43914e-06
1.76794e-06
-1.19783e-06
1.7844e-06
7.55279e-07
1.76151e-06
-1.0371e-06
1.74438e-06
-7.79867e-07
1.75897e-06
2.45213e-07
1.77359e-06
4.09863e-07
1.78247e-06
8.47854e-07
1.78729e-06
8.06133e-07
1.78453e-06
3.66441e-07
1.80284e-06
7.51633e-07
1.78463e-06
-7.41292e-08
1.81082e-06
3.46056e-07
1.77876e-06
-1.93436e-07
1.79324e-06
1.30613e-09
-1.31634e-07
1.74796e-06
1.86221e-06
2.15858e-07
1.84998e-06
-9.15284e-07
1.86227e-06
8.35081e-07
1.8603e-06
-2.9363e-07
1.87756e-06
1.42188e-06
1.85574e-06
-1.176e-06
1.87428e-06
7.36733e-07
1.84424e-06
-1.00706e-06
1.82437e-06
-7.5999e-07
1.83623e-06
2.33354e-07
1.85153e-06
3.94559e-07
1.86322e-06
8.36163e-07
1.87118e-06
7.98177e-07
1.87136e-06
3.66259e-07
1.89282e-06
7.30174e-07
1.87401e-06
-5.53235e-08
1.90097e-06
3.19104e-07
1.86737e-06
-1.59842e-07
1.88036e-06
-1.16861e-08
-8.9905e-08
1.83864e-06
1.95063e-06
2.18072e-07
1.93793e-06
-9.02588e-07
1.95186e-06
8.2115e-07
1.95123e-06
-2.93e-07
1.96996e-06
1.40315e-06
1.94595e-06
-1.152e-06
1.96687e-06
7.15813e-07
1.93179e-06
-9.71977e-07
1.90945e-06
-7.37654e-07
1.91782e-06
2.24987e-07
1.93311e-06
3.79265e-07
1.94757e-06
8.2171e-07
1.95948e-06
7.8626e-07
1.96265e-06
3.63091e-07
1.98695e-06
7.05876e-07
1.96724e-06
-3.56109e-08
1.99402e-06
2.92324e-07
1.95927e-06
-1.25095e-07
1.96993e-06
-2.23463e-08
-5.24748e-08
1.9325e-06
2.04368e-06
2.20578e-07
2.03066e-06
-8.89561e-07
2.04559e-06
8.06216e-07
2.04599e-06
-2.93404e-07
2.06638e-06
1.38277e-06
2.03965e-06
-1.12526e-06
2.0628e-06
6.92659e-07
2.02411e-06
-9.33283e-07
2.00087e-06
-7.14421e-07
2.00621e-06
2.19652e-07
2.02143e-06
3.64041e-07
2.0386e-06
8.04544e-07
2.05437e-06
7.70493e-07
2.05963e-06
3.57826e-07
2.08557e-06
6.79935e-07
2.0643e-06
-1.43415e-08
2.08986e-06
2.66762e-07
2.05453e-06
-8.97584e-08
2.06209e-06
-2.99088e-08
-2.00395e-08
2.02965e-06
2.14167e-06
2.22913e-07
2.12833e-06
-8.76224e-07
2.14356e-06
7.90987e-07
2.14451e-06
-2.94352e-07
2.16686e-06
1.36041e-06
2.13762e-06
-1.09602e-06
2.16266e-06
6.67615e-07
2.12132e-06
-8.91937e-07
2.09921e-06
-6.92316e-07
2.10281e-06
2.16049e-07
2.1185e-06
3.48355e-07
2.13797e-06
7.85073e-07
2.15628e-06
7.52182e-07
2.16207e-06
3.52042e-07
2.18809e-06
6.5391e-07
2.16482e-06
8.93025e-09
2.18831e-06
2.43269e-07
2.15329e-06
-5.47363e-08
2.15727e-06
-3.3894e-08
6.89839e-09
2.13034e-06
2.24473e-06
2.24671e-07
2.23095e-06
-8.62446e-07
2.24598e-06
7.75957e-07
2.24675e-06
-2.95119e-07
2.27144e-06
1.33572e-06
2.24014e-06
-1.06472e-06
2.26673e-06
6.41024e-07
2.22368e-06
-8.48882e-07
2.20408e-06
-6.72721e-07
2.20696e-06
2.13171e-07
2.2237e-06
3.31613e-07
2.24468e-06
7.64092e-07
2.26362e-06
7.33241e-07
2.2685e-06
3.4716e-07
2.29347e-06
6.28946e-07
2.26843e-06
3.39704e-08
2.28944e-06
2.22255e-07
2.25589e-06
-2.11863e-08
2.25626e-06
-3.42661e-08
2.82283e-08
2.23493e-06
2.35292e-06
2.2563e-07
2.3385e-06
-8.48027e-07
2.35316e-06
7.6129e-07
2.35296e-06
-2.94915e-07
2.38028e-06
1.30841e-06
2.3472e-06
-1.03165e-06
2.37513e-06
6.131e-07
2.3314e-06
-8.05156e-07
2.3145e-06
-6.55822e-07
2.31655e-06
2.1112e-07
2.33444e-06
3.13727e-07
2.35608e-06
7.42447e-07
2.37409e-06
7.15234e-07
2.37753e-06
3.43716e-07
2.40114e-06
6.05338e-07
2.37531e-06
5.98063e-08
2.39383e-06
2.03728e-07
2.36289e-06
9.76299e-09
2.35997e-06
-3.13471e-08
4.42396e-08
2.34395e-06
2.46625e-06
2.25777e-07
2.45104e-06
-8.32821e-07
2.46546e-06
7.46876e-07
2.46369e-06
-2.93147e-07
2.49376e-06
1.27833e-06
2.45889e-06
-9.96777e-07
2.4881e-06
5.83893e-07
2.44454e-06
-7.61596e-07
2.42964e-06
-6.40926e-07
2.42988e-06
2.10883e-07
2.44835e-06
2.95258e-07
2.47013e-06
7.20666e-07
2.48653e-06
6.98834e-07
2.48897e-06
3.41278e-07
2.51157e-06
5.82734e-07
2.48623e-06
8.51427e-08
2.50247e-06
1.87496e-07
2.47488e-06
3.73507e-08
2.46918e-06
-2.56525e-08
5.5545e-08
2.45788e-06
2.58482e-06
2.25251e-07
2.56881e-06
-8.16807e-07
2.5832e-06
7.3248e-07
2.5796e-06
-2.89546e-07
2.61236e-06
1.24558e-06
2.57554e-06
-9.5996e-07
2.6061e-06
5.53336e-07
2.56303e-06
-7.18525e-07
2.54929e-06
-6.27189e-07
2.54672e-06
2.13452e-07
2.56487e-06
2.77107e-07
2.58671e-06
6.98826e-07
2.60157e-06
6.83972e-07
2.60389e-06
3.38959e-07
2.62598e-06
5.60644e-07
2.60221e-06
1.08912e-07
2.61638e-06
1.7333e-07
2.59238e-06
6.13544e-08
2.58447e-06
-1.77417e-08
6.29492e-08
2.57706e-06
2.70883e-06
2.24249e-07
2.69209e-06
-8.00067e-07
2.70671e-06
7.17864e-07
2.70128e-06
-2.84122e-07
2.73653e-06
1.21033e-06
2.69765e-06
-9.21084e-07
2.72965e-06
5.21333e-07
2.68688e-06
-6.75753e-07
2.67379e-06
-6.141e-07
2.66809e-06
2.19152e-07
2.6851e-06
2.60096e-07
2.70726e-06
6.76674e-07
2.72089e-06
6.70338e-07
2.72389e-06
3.35956e-07
2.74574e-06
5.38802e-07
2.72404e-06
1.30609e-07
2.73639e-06
1.60979e-07
2.71576e-06
8.1984e-08
2.70605e-06
-8.03758e-09
6.72138e-08
2.70179e-06
2.83856e-06
2.22956e-07
2.82123e-06
-7.82731e-07
2.83626e-06
7.02834e-07
2.82914e-06
-2.7701e-07
2.86664e-06
1.17284e-06
2.82568e-06
-8.80127e-07
2.85919e-06
4.8783e-07
2.81626e-06
-6.32826e-07
2.80368e-06
-6.01521e-07
2.79527e-06
2.27564e-07
2.8106e-06
2.44761e-07
2.83347e-06
6.53803e-07
2.8461e-06
6.5771e-07
2.85019e-06
3.31866e-07
2.87184e-06
5.17157e-07
2.85219e-06
1.5026e-07
2.86295e-06
1.50218e-07
2.84533e-06
9.96024e-08
2.83405e-06
3.23878e-09
6.89744e-08
2.83229e-06
2.97433e-06
2.21518e-07
2.95652e-06
-7.6492e-07
2.97212e-06
6.87237e-07
2.96347e-06
-2.6836e-07
3.00302e-06
1.13329e-06
2.96001e-06
-8.37123e-07
2.99499e-06
4.52849e-07
2.95147e-06
-5.89304e-07
2.93943e-06
-5.89479e-07
2.92916e-06
2.37829e-07
2.94252e-06
2.31403e-07
2.96654e-06
6.29778e-07
2.97824e-06
6.46019e-07
2.98341e-06
3.26689e-07
3.0049e-06
4.95668e-07
2.98688e-06
1.68287e-07
2.99626e-06
1.40832e-07
2.98137e-06
1.14491e-07
2.9686e-06
1.60078e-08
6.88335e-08
2.96875e-06
3.11649e-06
2.20036e-07
3.09829e-06
-7.46724e-07
3.11457e-06
6.70958e-07
3.10449e-06
-2.58275e-07
3.14594e-06
1.09184e-06
3.10095e-06
-7.92134e-07
3.13732e-06
4.16484e-07
3.09292e-06
-5.44904e-07
3.0814e-06
-5.77966e-07
3.07027e-06
2.48967e-07
3.08145e-06
2.20223e-07
3.10702e-06
6.04206e-07
3.11778e-06
6.35262e-07
3.12377e-06
3.20691e-07
3.14521e-06
4.74229e-07
3.1283e-06
1.85196e-07
3.13641e-06
1.32724e-07
3.12421e-06
1.2669e-07
3.10992e-06
3.02996e-08
6.74216e-08
3.11133e-06
3.26538e-06
2.18568e-07
3.24685e-06
-7.28191e-07
3.26389e-06
6.53911e-07
3.25243e-06
-2.4681e-07
3.2957e-06
1.04856e-06
3.24881e-06
-7.45245e-07
3.28641e-06
3.78885e-07
3.24104e-06
-4.99536e-07
3.22993e-06
-5.66853e-07
3.21886e-06
2.60036e-07
3.22766e-06
2.11426e-07
3.25507e-06
5.76789e-07
3.26495e-06
6.25388e-07
3.27133e-06
3.14313e-07
3.29296e-06
4.52599e-07
3.27674e-06
2.01413e-07
3.28345e-06
1.26013e-07
3.27415e-06
1.3599e-07
3.25841e-06
4.6043e-08
6.55843e-08
3.26024e-06
3.42137e-06
2.17129e-07
3.40251e-06
-7.09335e-07
3.42038e-06
6.36046e-07
3.40755e-06
-2.33978e-07
3.45259e-06
1.00352e-06
3.40392e-06
-6.96576e-07
3.44255e-06
3.40248e-07
3.39631e-06
-4.53292e-07
3.38532e-06
-5.55865e-07
3.37517e-06
2.70189e-07
3.38134e-06
2.05255e-07
3.41075e-06
5.47384e-07
3.41995e-06
6.16185e-07
3.42613e-06
3.08129e-07
3.44825e-06
4.30481e-07
3.43254e-06
2.17119e-07
3.43751e-06
1.21043e-07
3.4314e-06
1.42099e-07
3.41453e-06
6.29158e-08
6.43273e-08
3.41579e-06
3.58484e-06
2.15703e-07
3.56564e-06
-6.90141e-07
3.58434e-06
6.17351e-07
3.57013e-06
-2.19767e-07
3.6169e-06
9.56756e-07
3.56662e-06
-6.46295e-07
3.60605e-06
3.00815e-07
3.55917e-06
-4.06417e-07
3.54792e-06
-5.44616e-07
3.53944e-06
2.7867e-07
3.54273e-06
2.01971e-07
3.57407e-06
5.16041e-07
3.583e-06
6.07252e-07
3.58832e-06
3.02814e-07
3.61122e-06
4.07585e-07
3.59613e-06
2.322e-07
3.59881e-06
1.18365e-07
3.59611e-06
1.448e-07
3.57884e-06
8.01915e-08
6.47704e-08
3.57839e-06
3.75617e-06
2.14241e-07
3.7366e-06
-6.70573e-07
3.7561e-06
5.97849e-07
3.74049e-06
-2.04155e-07
3.78895e-06
9.083e-07
3.73727e-06
-5.94625e-07
3.77721e-06
2.6088e-07
3.7301e-06
-3.59304e-07
3.71809e-06
-5.32612e-07
3.71197e-06
2.84795e-07
3.71213e-06
2.01805e-07
3.74515e-06
4.83027e-07
3.75438e-06
5.98022e-07
3.75818e-06
2.99014e-07
3.78194e-06
3.83819e-07
3.76798e-06
2.46162e-07
3.76774e-06
1.18608e-07
3.7684e-06
1.44134e-07
3.75173e-06
9.68658e-08
6.78155e-08
3.74868e-06
3.93575e-06
2.12677e-07
3.91576e-06
-6.50581e-07
3.93603e-06
5.77584e-07
3.91899e-06
-1.87116e-07
3.96906e-06
8.58224e-07
3.91628e-06
-5.4184e-07
3.95635e-06
2.2081e-07
3.90951e-06
-3.12466e-07
3.8962e-06
-5.19304e-07
3.89305e-06
2.87949e-07
3.88996e-06
2.04897e-07
3.92414e-06
4.48842e-07
3.93437e-06
5.8779e-07
3.9361e-06
2.97292e-07
3.9606e-06
3.5931e-07
3.94843e-06
2.58334e-07
3.94492e-06
1.22117e-07
3.94836e-06
1.40702e-07
3.93356e-06
1.11664e-07
7.39793e-08
3.92739e-06
4.12399e-06
2.10937e-07
4.10351e-06
-6.30104e-07
4.1245e-06
5.56596e-07
4.10602e-06
-1.68631e-07
4.1576e-06
8.06643e-07
4.10404e-06
-4.88278e-07
4.14378e-06
1.81063e-07
4.09785e-06
-2.66535e-07
4.08264e-06
-5.04096e-07
4.08297e-06
2.8762e-07
4.07668e-06
2.11189e-07
4.11131e-06
4.14213e-07
4.12329e-06
5.75808e-07
4.12258e-06
2.98e-07
4.14741e-06
3.34484e-07
4.13778e-06
2.6796e-07
4.13104e-06
1.28857e-07
4.13615e-06
1.3559e-07
4.12443e-06
1.23385e-07
8.30817e-08
4.11533e-06
4.32128e-06
2.08954e-07
4.30026e-06
-6.09081e-07
4.32195e-06
5.34904e-07
4.30203e-06
-1.48703e-07
4.35493e-06
7.5374e-07
4.30099e-06
-4.34335e-07
4.33985e-06
1.42194e-07
4.29554e-06
-2.2222e-07
4.27784e-06
-4.86397e-07
4.28203e-06
2.8343e-07
4.27284e-06
2.20378e-07
4.307e-06
3.80052e-07
4.32141e-06
5.61402e-07
4.31822e-06
3.01184e-07
4.34263e-06
3.1008e-07
4.3363e-06
2.74286e-07
4.32669e-06
1.38473e-07
4.33215e-06
1.30127e-07
4.32433e-06
1.31201e-07
9.42151e-08
4.3132e-06
4.52805e-06
2.06677e-07
4.50642e-06
-5.87446e-07
4.52884e-06
5.12477e-07
4.50749e-06
-1.27348e-07
4.56145e-06
6.99772e-07
4.50759e-06
-3.80473e-07
4.54493e-06
1.04857e-07
4.50302e-06
-1.80305e-07
4.48224e-06
-4.6562e-07
4.4905e-06
2.75168e-07
4.47898e-06
2.31898e-07
4.51164e-06
3.47394e-07
4.52901e-06
5.4403e-07
4.52359e-06
3.06608e-07
4.54663e-06
2.8704e-07
4.54414e-06
2.76773e-07
4.53239e-06
1.50222e-07
4.53686e-06
1.25652e-07
4.53325e-06
1.34812e-07
1.0605e-07
4.52142e-06
4.74472e-06
2.04073e-07
4.7224e-06
-5.6513e-07
4.74564e-06
4.89243e-07
4.72291e-06
-1.04617e-07
4.77759e-06
6.45084e-07
4.72436e-06
-3.27237e-07
4.75942e-06
6.97944e-08
4.72069e-06
-1.4157e-07
4.69637e-06
-4.41303e-07
4.70863e-06
2.62907e-07
4.69564e-06
2.4489e-07
4.72575e-06
3.17281e-07
4.7463e-06
5.23484e-07
4.73925e-06
3.13651e-07
4.75987e-06
2.66426e-07
4.76142e-06
2.75224e-07
4.74865e-06
1.62989e-07
4.75103e-06
1.23276e-07
4.75122e-06
1.34615e-07
1.16987e-07
4.74029e-06
4.97175e-06
2.01125e-07
4.94868e-06
-5.42063e-07
4.97282e-06
4.65103e-07
4.94881e-06
-8.06104e-08
5.00378e-06
5.90112e-07
4.95179e-06
-2.75244e-07
4.9838e-06
3.77889e-08
4.94897e-06
-1.0674e-07
4.92083e-06
-4.13165e-07
4.9367e-06
2.4704e-07
4.9233e-06
2.58286e-07
4.94993e-06
2.9065e-07
4.97353e-06
4.99888e-07
4.96573e-06
3.21446e-07
4.98296e-06
2.49197e-07
4.98843e-06
2.69759e-07
4.97586e-06
1.75558e-07
4.97549e-06
1.23645e-07
4.97847e-06
1.31632e-07
1.2556e-07
4.9699e-06
5.20962e-06
1.97823e-07
5.18573e-06
-5.1817e-07
5.21086e-06
4.39964e-07
5.18575e-06
-5.54981e-08
5.24048e-06
5.35379e-07
5.19042e-06
-2.25179e-07
5.21859e-06
9.62325e-09
5.18827e-06
-7.64215e-08
5.15633e-06
-3.8123e-07
5.17505e-06
2.28317e-07
5.16244e-06
2.70904e-07
5.18481e-06
2.68272e-07
5.21106e-06
4.73641e-07
5.20348e-06
3.29031e-07
5.21675e-06
2.3592e-07
5.2255e-06
2.61009e-07
5.21429e-06
1.8677e-07
5.21124e-06
1.267e-07
5.21537e-06
1.27504e-07
1.3065e-07
5.21028e-06
5.45885e-06
1.9416e-07
5.43407e-06
-4.93383e-07
5.46024e-06
4.13788e-07
5.43429e-06
-2.95419e-08
5.48818e-06
4.81482e-07
5.44078e-06
-1.77778e-07
5.46438e-06
-1.39769e-08
5.43899e-06
-5.10269e-08
5.40366e-06
-3.45905e-07
5.42418e-06
2.07799e-07
5.41343e-06
2.81651e-07
5.43113e-06
2.50573e-07
5.45936e-06
4.45412e-07
5.45293e-06
3.35466e-07
5.4621e-06
2.26746e-07
5.47321e-06
2.49903e-07
5.4642e-06
1.95778e-07
5.45902e-06
1.31882e-07
5.46279e-06
1.23732e-07
1.3208e-07
5.46136e-06
5.72e-06
1.90123e-07
5.69426e-06
-4.67649e-07
5.72144e-06
3.86608e-07
5.695e-06
-3.09984e-09
5.7474e-06
4.29085e-07
5.7034e-06
-1.33782e-07
5.72183e-06
-3.24086e-08
5.70153e-06
-3.07268e-08
5.66359e-06
-3.07958e-07
5.68465e-06
1.86734e-07
5.67666e-06
2.89641e-07
5.68966e-06
2.37575e-07
5.71899e-06
4.16086e-07
5.71453e-06
3.39918e-07
5.71984e-06
2.21443e-07
5.73218e-06
2.3756e-07
5.72591e-06
2.02042e-07
5.71935e-06
1.38447e-07
5.72182e-06
1.21256e-07
1.30577e-07
5.72333e-06
5.99362e-06
1.8569e-07
5.96692e-06
-4.40949e-07
5.99497e-06
3.58561e-07
5.96849e-06
2.33775e-08
6.01869e-06
3.78891e-07
5.97881e-06
-9.39e-08
5.99163e-06
-4.52354e-08
5.97628e-06
-1.53757e-08
5.93682e-06
-2.68498e-07
5.95711e-06
1.66447e-07
5.9525e-06
2.94251e-07
5.96119e-06
2.2888e-07
5.9906e-06
3.86679e-07
5.98877e-06
3.41744e-07
5.99071e-06
2.19508e-07
6.00317e-06
2.25099e-07
5.99983e-06
2.05377e-07
5.99275e-06
1.45537e-07
5.99351e-06
1.20492e-07
1.27462e-07
5.99663e-06
6.28034e-06
1.80839e-07
6.25271e-06
-4.13317e-07
6.28139e-06
3.29877e-07
6.25539e-06
4.93794e-08
6.30267e-06
3.31606e-07
6.26753e-06
-5.87592e-08
6.27453e-06
-5.22334e-08
6.26365e-06
-4.49865e-09
6.22396e-06
-2.28807e-07
6.24232e-06
1.48088e-07
6.24134e-06
2.95237e-07
6.24645e-06
2.2377e-07
6.27494e-06
3.58183e-07
6.27608e-06
3.40603e-07
6.27536e-06
2.20232e-07
6.287e-06
2.13455e-07
6.28652e-06
2.05855e-07
6.27952e-06
1.52539e-07
6.27884e-06
1.21175e-07
1.24132e-07
6.28217e-06
6.58077e-06
1.75539e-07
6.55228e-06
-3.84829e-07
6.58133e-06
3.00832e-07
6.5563e-06
7.44024e-08
6.60002e-06
2.87887e-07
6.57011e-06
-2.88432e-08
6.57134e-06
-5.34681e-08
6.56419e-06
2.65635e-09
6.52545e-06
-1.90073e-07
6.54114e-06
1.32405e-07
6.54363e-06
2.92746e-07
6.54604e-06
2.21359e-07
6.5728e-06
3.31421e-07
6.57693e-06
3.36473e-07
6.57438e-06
2.22788e-07
6.5845e-06
2.03328e-07
6.5866e-06
2.0376e-07
6.58021e-06
1.58925e-07
6.57845e-06
1.2294e-07
1.21437e-07
6.58114e-06
6.89557e-06
1.69755e-07
6.86633e-06
-3.5558e-07
6.89547e-06
2.71688e-07
6.87187e-06
9.80007e-08
6.91144e-06
2.48316e-07
6.88708e-06
-4.47875e-09
6.88308e-06
-4.94726e-08
6.87848e-06
7.25968e-09
6.84178e-06
-1.53378e-07
6.85437e-06
1.19823e-07
6.85993e-06
2.8718e-07
6.86054e-06
2.20749e-07
6.88493e-06
3.07035e-07
6.89186e-06
3.29545e-07
6.88834e-06
2.26306e-07
6.89648e-06
1.95182e-07
6.90071e-06
1.99538e-07
6.89532e-06
1.64309e-07
6.89288e-06
1.25385e-07
1.1957e-07
6.89474e-06
7.22544e-06
1.63453e-07
7.19551e-06
-3.2565e-07
7.22453e-06
2.42667e-07
7.20273e-06
1.19798e-07
7.23766e-06
2.13391e-07
7.21904e-06
1.41344e-08
7.21063e-06
-4.1062e-08
7.20729e-06
1.06039e-08
7.17344e-06
-1.1953e-07
7.18283e-06
1.10438e-07
7.19088e-06
2.79126e-07
7.19046e-06
2.21173e-07
7.21213e-06
2.85367e-07
7.22142e-06
3.20251e-07
7.21777e-06
2.29955e-07
7.22374e-06
1.89215e-07
7.22954e-06
1.93736e-07
7.22554e-06
1.68306e-07
7.22262e-06
1.28309e-07
1.18284e-07
7.2239e-06
7.57108e-06
1.56602e-07
7.54049e-06
-2.9506e-07
7.56923e-06
2.13922e-07
7.54957e-06
1.3946e-07
7.57943e-06
1.83531e-07
7.56651e-06
2.70512e-08
7.55475e-06
-2.92984e-08
7.55148e-06
1.38782e-08
7.52093e-06
-8.89885e-08
7.5273e-06
1.04075e-07
7.53718e-06
2.69247e-07
7.53639e-06
2.21963e-07
7.55507e-06
2.66677e-07
7.56625e-06
3.09072e-07
7.56322e-06
2.32988e-07
7.56702e-06
1.85411e-07
7.57386e-06
1.86902e-07
7.57153e-06
1.70631e-07
7.5683e-06
1.31545e-07
1.17346e-07
7.56923e-06
7.93322e-06
1.49189e-07
7.90196e-06
-2.63791e-07
7.93029e-06
1.85588e-07
7.9131e-06
1.56649e-07
7.93755e-06
1.59076e-07
7.92985e-06
3.47522e-08
7.91605e-06
-1.54952e-08
7.91195e-06
1.79766e-08
7.88481e-06
-6.18443e-08
7.88856e-06
1.00323e-07
7.89952e-06
2.58286e-07
7.89888e-06
2.22607e-07
7.91456e-06
2.5099e-07
7.92702e-06
2.96615e-07
7.9252e-06
2.34809e-07
7.92723e-06
1.83375e-07
7.93433e-06
1.79803e-07
7.93403e-06
1.70937e-07
7.93064e-06
1.34929e-07
1.16793e-07
7.9312e-06
8.31264e-06
1.41233e-07
8.28073e-06
-2.31888e-07
8.3084e-06
1.57921e-07
8.29412e-06
1.70928e-07
8.31293e-06
1.40274e-07
8.30959e-06
3.80845e-08
8.29523e-06
-1.13353e-09
8.28966e-06
2.35459e-08
8.26568e-06
-3.78602e-08
8.26731e-06
9.86954e-08
8.27867e-06
2.46921e-07
8.27845e-06
2.22827e-07
8.29129e-06
2.38149e-07
8.3045e-06
2.83408e-07
8.30434e-06
2.34968e-07
8.30511e-06
1.82602e-07
8.31188e-06
1.73036e-07
8.31358e-06
1.69236e-07
8.31049e-06
1.38019e-07
1.16823e-07
8.31046e-06
8.7101e-06
1.3279e-07
8.67778e-06
-1.99566e-07
8.70428e-06
1.31422e-07
8.69354e-06
1.81665e-07
8.70655e-06
1.27264e-07
8.70651e-06
3.81269e-08
8.69287e-06
1.25072e-08
8.68561e-06
3.08034e-08
8.6642e-06
-1.64454e-08
8.66415e-06
9.8748e-08
8.67528e-06
2.35789e-07
8.67573e-06
2.2237e-07
8.68611e-06
2.27777e-07
8.69966e-06
2.69855e-07
8.7013e-06
2.33329e-07
8.70144e-06
1.82457e-07
8.70745e-06
1.67031e-07
8.71087e-06
1.65817e-07
8.70869e-06
1.40196e-07
1.1755e-07
8.70796e-06
9.12644e-06
1.23973e-07
9.09416e-06
-1.67288e-07
9.11877e-06
1.06812e-07
9.11223e-06
1.88207e-07
9.11962e-06
1.19871e-07
9.12138e-06
3.6364e-08
9.10949e-06
2.44045e-08
9.10066e-06
3.96282e-08
9.08111e-06
3.10655e-09
9.07965e-06
1.0021e-07
9.0902e-06
2.25236e-07
9.09148e-06
2.21092e-07
9.10013e-06
2.19124e-07
9.11357e-06
2.56413e-07
9.11701e-06
2.29897e-07
9.11698e-06
1.82483e-07
9.12209e-06
1.61922e-07
9.12668e-06
1.6123e-07
9.12595e-06
1.40925e-07
1.18808e-07
9.12469e-06
9.56249e-06
1.14945e-07
9.53095e-06
-1.35754e-07
9.55283e-06
8.49313e-08
9.55103e-06
1.90012e-07
9.55332e-06
1.17576e-07
9.55502e-06
3.46683e-08
9.54544e-06
3.39877e-08
9.53562e-06
4.94461e-08
9.51729e-06
2.14387e-08
9.51479e-06
1.02711e-07
9.52477e-06
2.15253e-07
9.52709e-06
2.18768e-07
9.53454e-06
2.11675e-07
9.54744e-06
2.43509e-07
9.55247e-06
2.24872e-07
9.55262e-06
1.82332e-07
9.55684e-06
1.57708e-07
9.56205e-06
1.56012e-07
9.56282e-06
1.40156e-07
1.19974e-07
9.56166e-06
1.00192e-05
1.05912e-07
9.98916e-06
-1.05745e-07
1.00075e-05
6.65459e-08
1.00105e-05
1.87048e-07
1.00087e-05
1.19375e-07
1.00085e-05
3.49217e-08
1.00011e-05
4.13516e-08
9.99137e-06
5.91705e-08
9.97431e-06
3.84939e-08
9.97095e-06
1.06077e-07
9.98039e-06
2.05812e-07
9.98372e-06
2.15438e-07
9.99025e-06
2.05141e-07
1.00026e-05
2.31186e-07
1.00087e-05
2.18728e-07
1.00094e-05
1.8168e-07
1.00128e-05
1.54311e-07
1.0018e-05
1.50742e-07
1.00202e-05
1.37962e-07
1.2057e-07
1.00196e-05
1.04974e-05
9.71033e-08
1.04697e-05
-7.79907e-08
1.04839e-05
5.23344e-08
1.04911e-05
1.79872e-07
1.0487e-05
1.23458e-07
1.04838e-05
3.81117e-08
1.04779e-05
4.73014e-08
1.0469e-05
6.80354e-08
1.04535e-05
5.40079e-08
1.04495e-05
1.10066e-07
1.04583e-05
1.97017e-07
1.04624e-05
2.11364e-07
1.04683e-05
1.99207e-07
1.04798e-05
2.1965e-07
1.04869e-05
2.1166e-07
1.04882e-05
1.80388e-07
1.04909e-05
1.51572e-07
1.04959e-05
1.45775e-07
1.04991e-05
1.34727e-07
1.20263e-07
1.04994e-05
1.09984e-05
8.87373e-08
1.09734e-05
-5.30212e-08
1.09832e-05
4.25689e-08
1.09935e-05
1.69555e-07
1.09893e-05
1.2769e-07
1.09833e-05
4.40815e-08
1.09777e-05
5.2908e-08
1.09697e-05
7.6048e-08
1.09557e-05
6.79354e-08
1.09515e-05
1.14308e-07
1.09595e-05
1.89027e-07
1.09642e-05
2.06699e-07
1.09696e-05
1.93776e-07
1.09803e-05
2.08974e-07
1.0988e-05
2.03916e-07
1.09901e-05
1.78296e-07
1.09923e-05
1.49383e-07
1.09969e-05
1.41184e-07
1.10007e-05
1.30869e-07
1.19094e-07
1.10019e-05
1.15231e-05
8.09935e-08
1.15012e-05
-3.11372e-08
1.15069e-05
3.69399e-08
1.15189e-05
1.57542e-07
1.15161e-05
1.30426e-07
1.15079e-05
5.22631e-08
1.15021e-05
5.8796e-08
1.14946e-05
8.35075e-08
1.14822e-05
8.03231e-08
1.1478e-05
1.18551e-07
1.14851e-05
1.81912e-07
1.14902e-05
2.01581e-07
1.14952e-05
1.88792e-07
1.15049e-05
1.99235e-07
1.15132e-05
1.95615e-07
1.15161e-05
1.75461e-07
1.15181e-05
1.47368e-07
1.15222e-05
1.37104e-07
1.15263e-05
1.26715e-07
1.17119e-07
1.15283e-05
1.20728e-05
7.39982e-08
1.20541e-05
-1.24697e-08
1.20563e-05
3.48137e-08
1.20687e-05
1.45076e-07
1.20681e-05
1.3102e-07
1.20589e-05
6.15107e-08
1.20521e-05
6.56079e-08
1.20449e-05
9.06864e-08
1.20341e-05
9.1173e-08
1.20299e-05
1.22663e-07
1.20363e-05
1.75586e-07
1.20416e-05
1.96258e-07
1.20462e-05
1.84178e-07
1.2055e-05
1.90445e-07
1.20635e-05
1.87068e-07
1.20672e-05
1.71779e-07
1.20693e-05
1.45286e-07
1.20729e-05
1.33559e-07
1.20771e-05
1.22471e-07
1.14481e-07
1.20797e-05
1.26488e-05
6.78112e-08
1.26333e-05
3.03103e-09
1.26328e-05
3.53319e-08
1.26447e-05
1.33124e-07
1.26461e-05
1.29634e-07
1.26371e-05
7.04675e-08
1.26291e-05
7.36987e-08
1.26218e-05
9.7923e-08
1.26124e-05
1.00637e-07
1.26086e-05
1.26456e-07
1.26142e-05
1.69949e-07
1.26196e-05
1.90873e-07
1.26239e-05
1.79855e-07
1.26317e-05
1.82621e-07
1.26402e-05
1.78589e-07
1.26448e-05
1.67206e-07
1.26472e-05
1.42901e-07
1.26503e-05
1.30467e-07
1.26544e-05
1.18345e-07
1.11368e-07
1.26575e-05
1.32523e-05
6.2408e-08
1.32397e-05
1.56913e-08
1.32377e-05
3.73549e-08
1.3248e-05
1.22763e-07
1.3251e-05
1.26665e-07
1.32433e-05
7.81359e-08
1.32344e-05
8.26564e-08
1.32265e-05
1.05735e-07
1.32182e-05
1.0898e-07
1.3215e-05
1.29704e-07
1.322e-05
1.6486e-07
1.32254e-05
1.85467e-07
1.32296e-05
1.75737e-07
1.32364e-05
1.75773e-07
1.32446e-05
1.70444e-07
1.32499e-05
1.61895e-07
1.32528e-05
1.39973e-07
1.32556e-05
1.27614e-07
1.32594e-05
1.14573e-07
1.07823e-07
1.3263e-05
1.38849e-05
5.76931e-08
1.38747e-05
2.58484e-08
1.38721e-05
3.99449e-08
1.38804e-05
1.14524e-07
1.38839e-05
1.2309e-07
1.38781e-05
8.40277e-08
1.3869e-05
9.17106e-08
1.38605e-05
1.14285e-07
1.38529e-05
1.16536e-07
1.38502e-05
1.32379e-07
1.3855e-05
1.6006e-07
1.38605e-05
1.80003e-07
1.38646e-05
1.71667e-07
1.38704e-05
1.699e-07
1.38781e-05
1.62788e-07
1.38838e-05
1.56161e-07
1.38874e-05
1.3642e-07
1.38903e-05
1.24657e-07
1.38937e-05
1.11233e-07
1.04085e-07
1.38974e-05
1.45478e-05
5.35489e-08
1.45394e-05
3.4212e-08
1.45372e-05
4.21772e-08
1.45435e-05
1.08285e-07
1.45463e-05
1.2027e-07
1.45418e-05
8.84726e-08
1.45337e-05
9.98681e-08
1.4525e-05
1.22952e-07
1.45179e-05
1.2364e-07
1.45156e-05
1.34631e-07
1.45204e-05
1.55337e-07
1.4526e-05
1.74381e-07
1.45301e-05
1.67508e-07
1.45353e-05
1.64789e-07
1.45422e-05
1.55804e-07
1.45482e-05
1.50212e-07
1.45522e-05
1.32419e-07
1.45555e-05
1.21316e-07
1.45587e-05
1.08075e-07
1.00519e-07
1.45623e-05
1.52425e-05
4.99168e-08
1.52356e-05
4.11e-08
1.52344e-05
4.33819e-08
1.5238e-05
1.04699e-07
1.52388e-05
1.19465e-07
1.5235e-05
9.22993e-08
1.52292e-05
1.05678e-07
1.52216e-05
1.30548e-07
1.52149e-05
1.30331e-07
1.52128e-05
1.36761e-07
1.52173e-05
1.50761e-07
1.52233e-05
1.6842e-07
1.52278e-05
1.63047e-07
1.52323e-05
1.60239e-07
1.52386e-05
1.4956e-07
1.52445e-05
1.44267e-07
1.52488e-05
1.28098e-07
1.52525e-05
1.17598e-07
1.52558e-05
1.04785e-07
9.72332e-08
1.52591e-05
1.59707e-05
4.65156e-08
1.59669e-05
4.49168e-08
1.59639e-05
4.64324e-08
1.59638e-05
1.04798e-07
1.59629e-05
1.20301e-07
1.59596e-05
9.56582e-08
1.59571e-05
1.08196e-07
1.59516e-05
1.35997e-07
1.59455e-05
1.36431e-07
1.59432e-05
1.39038e-07
1.59475e-05
1.46517e-07
1.59538e-05
1.62126e-07
1.59588e-05
1.58056e-07
1.59632e-05
1.55839e-07
1.59686e-05
1.44077e-07
1.59744e-05
1.38509e-07
1.59789e-05
1.23553e-07
1.59828e-05
1.13719e-07
1.59865e-05
1.01144e-07
9.409e-08
1.59896e-05
1.67333e-05
4.38669e-08
1.67228e-05
5.54028e-08
1.67199e-05
4.92579e-08
1.67234e-05
1.01361e-07
1.67227e-05
1.21012e-07
1.67195e-05
9.87999e-08
1.67194e-05
1.08271e-07
1.67167e-05
1.38782e-07
1.67115e-05
1.41644e-07
1.67089e-05
1.41635e-07
1.67125e-05
1.42862e-07
1.67189e-05
1.55744e-07
1.67245e-05
1.52418e-07
1.67292e-05
1.51196e-07
1.67341e-05
1.3916e-07
1.67395e-05
1.33115e-07
1.67442e-05
1.18868e-07
1.67481e-05
1.09808e-07
1.6752e-05
9.71842e-08
9.08203e-08
1.67553e-05
1.75328e-05
4.14279e-08
1.75262e-05
6.20461e-08
1.75204e-05
5.49974e-08
1.75221e-05
9.9645e-08
1.75211e-05
1.22078e-07
1.75169e-05
1.0292e-07
1.7518e-05
1.07192e-07
1.75179e-05
1.3886e-07
1.75143e-05
1.45317e-07
1.75114e-05
1.44498e-07
1.75143e-05
1.40013e-07
1.75204e-05
1.4957e-07
1.75266e-05
1.46229e-07
1.75318e-05
1.46032e-07
1.75366e-05
1.3439e-07
1.75415e-05
1.28162e-07
1.75462e-05
1.14177e-07
1.75502e-05
1.05805e-07
1.75541e-05
9.32646e-08
8.71267e-08
1.75578e-05
1.83702e-05
3.95303e-08
1.83633e-05
6.90291e-08
1.83578e-05
6.048e-08
1.83598e-05
9.75952e-08
1.83593e-05
1.22558e-07
1.83541e-05
1.08136e-07
1.83547e-05
1.066e-07
1.8357e-05
1.36553e-07
1.83555e-05
1.46887e-07
1.83528e-05
1.4721e-07
1.83547e-05
1.38106e-07
1.83602e-05
1.44012e-07
1.83667e-05
1.39699e-07
1.83724e-05
1.4036e-07
1.83775e-05
1.29356e-07
1.83822e-05
1.23429e-07
1.83868e-05
1.09608e-07
1.83909e-05
1.01681e-07
1.83947e-05
8.94512e-08
8.31777e-08
1.83986e-05
1.92479e-05
3.80125e-08
1.92423e-05
7.45937e-08
1.92363e-05
6.65468e-08
1.92378e-05
9.60506e-08
1.92384e-05
1.21942e-07
1.92327e-05
1.13856e-07
1.92319e-05
1.0745e-07
1.92355e-05
1.32882e-07
1.92364e-05
1.46063e-07
1.92346e-05
1.49008e-07
1.92357e-05
1.3698e-07
1.92404e-05