/*--------------------------------*- C++ -*----------------------------------*\
| =========                 |                                                 |
| \\      /  F ield         | OpenFOAM: The Open Source CFD Toolbox           |
|  \\    /   O peration     | Version:  2506                                  |
|   \\  /    A nd           | Website:  www.openfoam.com                      |
|    \\/     M anipulation  |                                                 |
\*---------------------------------------------------------------------------*/
FoamFile
{
    version     2.0;
    format      ascii;
    arch        "LSB;label=32;scalar=64";
    class       volScalarField;
    location    "4.05";
    object      p;
}
// * * * * * * * * * * * * * * * * * * * * * * * * * * * * * * * * * * * * * //

dimensions      [0 2 -2 0 0 0 0];

internalField   nonuniform List<scalar> 
9600
(
-9.23055e-12
-0.000791946
-0.00161038
0.00146634
0.00167808
-0.00217931
-0.000598355
0.00152894
-0.000765347
0.00252785
0.00487867
0.00668181
0.00807395
0.00887729
0.0112489
0.0136146
0.0162906
0.0182119
0.023231
0.0285203
-2.99843e-06
-0.00077278
-0.00160513
0.00146461
0.0016574
-0.00218205
-0.000592656
0.00153591
-0.000750204
0.00250208
0.00487692
0.00666998
0.00805762
0.00887817
0.0112498
0.0136073
0.0163025
0.0181626
0.0233279
0.0280884
-4.50621e-06
-0.000754065
-0.00160029
0.00145289
0.00162455
-0.0021669
-0.000583346
0.00153728
-0.00072795
0.00245901
0.00487336
0.00665127
0.00803528
0.00889235
0.0112453
0.013606
0.0163035
0.0181049
0.023358
0.0274645
-4.96388e-06
-0.000736199
-0.00159407
0.00143936
0.0015902
-0.00213202
-0.000567587
0.00153563
-0.000691396
0.0024433
0.00487297
0.00663516
0.00801354
0.0089153
0.0112424
0.0136055
0.0162984
0.0180507
0.0233024
0.0269186
-5.38227e-06
-0.000718197
-0.00158297
0.00142629
0.00155474
-0.00207903
-0.000545211
0.00153188
-0.000640005
0.00242824
0.00487888
0.0066203
0.00799362
0.00894356
0.0112455
0.0136032
0.0162939
0.0179877
0.0232106
0.0264196
-6.28703e-06
-0.000699561
-0.00156506
0.0014121
0.00151938
-0.00201184
-0.000515546
0.00152809
-0.000575704
0.00241805
0.00489038
0.00660476
0.00797662
0.00897621
0.0112555
0.0136002
0.0162857
0.0179207
0.0230832
0.0259474
-7.87624e-06
-0.000679817
-0.00153975
0.00139777
0.00148645
-0.00193363
-0.000478661
0.00152472
-0.000501411
0.00241499
0.00490643
0.006589
0.00796277
0.00901246
0.0112719
0.0135961
0.0162717
0.0178513
0.0229156
0.0254934
-9.95248e-06
-0.000658556
-0.00150703
0.00138601
0.00145724
-0.00184704
-0.000434718
0.00152178
-0.000419623
0.00241933
0.00492659
0.00657314
0.00795155
0.00905085
0.0112928
0.0135907
0.0162498
0.0177788
0.0227069
0.0250533
-1.2089e-05
-0.000635653
-0.00146723
0.00137875
0.00143185
-0.0017539
-0.000384284
0.0015192
-0.000332102
0.00242977
0.00494983
0.00655665
0.00794198
0.00908918
0.0113157
0.0135838
0.0162172
0.017702
0.0224595
0.0246223
-1.39198e-05
-0.000611225
-0.00142112
0.00137651
0.00140975
-0.0016558
-0.000328199
0.00151713
-0.000240089
0.0024448
0.00497516
0.00653906
0.00793268
0.00912525
0.0113375
0.0135747
0.0161715
0.0176197
0.0221769
0.0241946
-1.52839e-05
-0.000585385
-0.0013699
0.0013787
0.00139015
-0.00155447
-0.000267466
0.00151582
-0.000144439
0.0024637
0.00500255
0.00652034
0.00792222
0.00915711
0.0113548
0.0135628
0.016111
0.0175303
0.0218633
0.0237648
-1.6174e-05
-0.000558156
-0.00131473
0.00138407
0.001372
-0.00145176
-0.000203074
0.00151549
-4.54463e-05
0.00248683
0.00503265
0.00650086
0.00790933
0.0091832
0.0113646
0.0135474
0.0160353
0.0174315
0.0215231
0.0233289
-1.66166e-05
-0.000529519
-0.00125657
0.00139121
0.00135442
-0.00134921
-0.000135928
0.00151631
5.67718e-05
0.00251515
0.00506645
0.00648146
0.0078932
0.00920278
0.0113652
0.0135281
0.0159442
0.0173204
0.0211611
0.022884
-1.66226e-05
-0.000499427
-0.00119611
0.0013991
0.00133715
-0.00124812
-6.67286e-05
0.00151836
0.000161852
0.00254937
0.0051048
0.00646331
0.00787358
0.00921602
0.0113557
0.0135046
0.0158384
0.0171941
0.0207823
0.0224287
-1.61819e-05
-0.000467818
-0.00113373
0.00140736
0.00132024
-0.00114947
4.17071e-06
0.00152181
0.000269221
0.00258959
0.00514795
0.00644749
0.00785042
0.00922379
0.0113196
0.0134761
0.0157196
0.0170498
0.0203903
0.0219634
-1.52481e-05
-0.000434654
-0.00106959
0.00141584
0.00130383
-0.00105377
7.67123e-05
0.00152699
0.000378226
0.00263534
0.00519537
0.00643455
0.00782364
0.00922762
0.0112896
0.0134414
0.0155899
0.0168853
0.0199879
0.0214895
-1.37445e-05
-0.000399944
-0.00100381
0.00142441
0.00128829
-0.000961018
0.000150923
0.00153427
0.000488215
0.00268585
0.00524595
0.0064246
0.00779307
0.00922854
0.0112525
0.0133986
0.0154509
0.0166994
0.0195765
0.0210092
-1.15765e-05
-0.000363741
-0.000936504
0.00143296
0.00127421
-0.000870999
0.000226812
0.00154398
0.000598518
0.0027403
0.00529828
0.00641758
0.00775854
0.00922695
0.011209
0.013346
0.0153041
0.0164922
0.0191565
0.0205251
-8.63166e-06
-0.000326125
-0.000867825
0.00144148
0.00126219
-0.000783461
0.000304341
0.00155651
0.000708493
0.00279802
0.00535105
0.0064134
0.00771995
0.00922272
0.0111606
0.0132817
0.0151498
0.016265
0.0187275
0.0200392
-4.79036e-06
-0.000287188
-0.000797883
0.00144994
0.00125273
-0.000698221
0.000383339
0.00157224
0.00081755
0.0028585
0.00540326
0.00641185
0.00767721
0.00921529
0.011108
0.0132042
0.0149877
0.0160202
0.0182888
0.0195532
8.96091e-08
-0.000247044
-0.00072674
0.00145834
0.00124622
-0.000615109
0.000463558
0.00159155
0.000925121
0.00292148
0.00545414
0.00641248
0.00763049
0.00920379
0.011051
0.0131124
0.0148171
0.0157608
0.0178399
0.0190679
6.18517e-06
-0.000205808
-0.000654422
0.00146666
0.00124294
-0.000534002
0.000544683
0.00161486
0.0010307
0.00298666
0.00550312
0.006415
0.00758027
0.00918708
0.0109934
0.0130055
0.0146367
0.01549
0.0173814
0.0185828
1.36681e-05
-0.000163576
-0.00058095
0.00147485
0.0012431
-0.000454797
0.000626264
0.00164261
0.001134
0.00305361
0.00554999
0.0064193
0.00752679
0.00916377
0.0109339
0.0128836
0.0144449
0.0152099
0.0169148
0.0180966
2.26929e-05
-0.000120445
-0.000506356
0.00148289
0.00124688
-0.00037734
0.000707836
0.00167512
0.0012349
0.003122
0.00559462
0.00642501
0.00747048
0.00913254
0.0108711
0.012748
0.0142403
0.0149211
0.016442
0.0176084
3.34399e-05
-7.64963e-05
-0.000430711
0.00149079
0.00125438
-0.000301446
0.00078897
0.00171258
0.0013333
0.00319154
0.00563694
0.00643141
0.00741199
0.00909252
0.0108039
0.0125995
0.0140223
0.0146254
0.0159641
0.0171164
4.61146e-05
-3.17578e-05
-0.000354122
0.00149855
0.00126566
-0.000226859
0.000869192
0.00175508
0.0014292
0.00326177
0.00567696
0.0064377
0.00735172
0.0090434
0.0107314
0.0124383
0.0137901
0.0143249
0.0154833
0.0166179
6.08792e-05
1.3759e-05
-0.000276686
0.00150616
0.00128078
-0.000153262
0.000948089
0.00180263
0.00152258
0.0033321
0.00571547
0.00644315
0.00728974
0.00898511
0.0106523
0.0122649
0.0135431
0.0140208
0.0150036
0.0161086
7.78494e-05
6.00943e-05
-0.000198514
0.00151368
0.00129972
-8.03755e-05
0.00102539
0.00185529
0.0016134
0.00340187
0.00575243
0.00644707
0.00722558
0.00891742
0.0105663
0.0120804
0.0132804
0.0137125
0.0145299
0.0155864
9.71412e-05
0.000107368
-0.00011973
0.00152112
0.00132245
-7.92621e-06
0.00110079
0.00191318
0.00170181
0.00347022
0.00578792
0.00644884
0.00715875
0.00884025
0.0104725
0.0118867
0.0130024
0.0133978
0.0140654
0.0150557
0.000118845
0.000155711
-4.0407e-05
0.00152853
0.0013489
6.44175e-05
0.0011739
0.00197625
0.00178817
0.00353603
0.00582204
0.00644824
0.00708883
0.00875357
0.0103696
0.0116853
0.012711
0.013074
0.013611
0.0145225
0.000143006
0.000205293
3.94187e-05
0.00153591
0.00137908
0.000136979
0.00124422
0.00204421
0.00187298
0.00359813
0.00585491
0.00644545
0.00701457
0.00865712
0.0102575
0.0114769
0.0124076
0.0127414
0.0131667
0.0139912
0.000169657
0.000256313
0.000119731
0.00154321
0.00141313
0.000210105
0.00131113
0.00211691
0.00195688
0.00365519
0.00588624
0.00644075
0.00693464
0.00855041
0.0101372
0.0112618
0.0120931
0.0124015
0.0127329
0.0134651
0.000198794
0.000308898
0.000200669
0.00155037
0.00145107
0.000284382
0.00137395
0.00219399
0.00204079
0.00370591
0.00591503
0.0064345
0.00684856
0.00843265
0.0100106
0.0110413
0.0117678
0.0120545
0.0123107
0.012947
0.000230432
0.00036314
0.000282577
0.00155724
0.0014926
0.000360504
0.0014321
0.00227466
0.00212576
0.00374946
0.00593978
0.00642729
0.00675681
0.00830282
0.00987674
0.0108178
0.0114331
0.0116984
0.0119012
0.0124412
0.00026469
0.000419032
0.000365818
0.00156383
0.00153724
0.000439114
0.00148498
0.00235799
0.00221305
0.00378514
0.00595851
0.00642024
0.00666013
0.00815981
0.00973393
0.0105938
0.0110923
0.0113316
0.0115021
0.0119542
0.000301684
0.000476298
0.000450974
0.00157034
0.0015843
0.000521309
0.00153193
0.00244246
0.0023042
0.00381278
0.00596897
0.00641319
0.00655907
0.00800228
0.00958106
0.0103711
0.0107492
0.0109541
0.0111101
0.0114909
0.000341563
0.00053448
0.000538666
0.00157732
0.00163263
0.000608423
0.00157274
0.00252553
0.00240067
0.00383318
0.00596859
0.00640573
0.00645439
0.0078292
0.00941628
0.010151
0.010407
0.0105668
0.0107214
0.0110513
0.000384665
0.00059304
0.000629055
0.0015858
0.00168078
0.000701519
0.00160829
0.00260413
0.00250289
0.00384774
0.00595471
0.00639676
0.00634956
0.00764122
0.00923769
0.00993504
0.0100693
0.0101707
0.0103323
0.0106322
0.000431424
0.000651221
0.000722189
0.00159694
0.00172716
0.000801357
0.00164039
0.00267519
0.00261019
0.00385869
0.00592537
0.00638437
0.00624703
0.00743841
0.00904306
0.00972355
0.00974097
0.00976787
0.00993971
0.0102303
0.000482302
0.000708268
0.000817886
0.00161237
0.00176998
0.000907677
0.00167162
0.00273596
0.00272091
0.00386896
0.00587991
0.00636586
0.00614869
0.00722309
0.00882889
0.00951398
0.00942786
0.00936324
0.00954132
0.00984102
0.000537867
0.000763803
0.000915118
0.0016344
0.00180822
0.00101905
0.001705
0.00278463
0.00283184
0.0038808
0.005819
0.00633884
0.00605604
0.00699836
0.00859097
0.00930235
0.0091343
0.00896278
0.0091363
0.00945854
0.000598495
0.000817605
0.00101249
0.00166448
0.00184214
0.00113344
0.0017432
0.00282077
0.00293799
0.0038946
0.00574514
0.00630179
0.0059701
0.00676828
0.00832818
0.00908443
0.00886187
0.00857283
0.00871902
0.00907507
0.000664583
0.000869695
0.00110806
0.00170576
0.00187302
0.00124756
0.00178893
0.00284581
0.00303336
0.00390924
0.00566161
0.00625392
0.00589099
0.00653734
0.00804211
0.0088543
0.0086088
0.00820202
0.00828231
0.00868183
0.000736333
0.000920785
0.00119941
0.00175917
0.00190397
0.00135632
0.00184265
0.0028629
0.0031145
0.00392227
0.00557074
0.00619528
0.00581865
0.00630964
0.00773523
0.00860461
0.00837073
0.00785943
0.00784575
0.00827278
0.000813459
0.000972207
0.00128432
0.00182411
0.00192717
0.00145357
0.00190153
0.00287977
0.00318168
0.00392982
0.00547334
0.00612593
0.00575238
0.00608981
0.00741167
0.00833007
0.00814108
0.0075493
0.00742172
0.00784595
0.000895995
0.00102545
0.00136038
0.00189835
0.00196496
0.0015385
0.00196256
0.00290161
0.00323757
0.00392885
0.00536902
0.00604517
0.00568988
0.00588209
0.00707619
0.00802893
0.0079099
0.00726983
0.00702406
0.00740693
0.000983364
0.00108227
0.00142645
0.00197819
0.0020166
0.00161268
0.00202029
0.00292859
0.00328736
0.00391941
0.00525581
0.00595147
0.00562868
0.00568973
0.00673578
0.00770253
0.00766952
0.00701648
0.00666247
0.00696814
0.00107445
0.00114474
0.00148285
0.00205811
0.00208498
0.00168012
0.00206745
0.00295777
0.00333715
0.00390363
0.00513211
0.00584274
0.00556644
0.00551565
0.00639893
0.00735382
0.00741343
0.00678035
0.00633622
0.0065453
0.00116871
0.00121432
0.00153063
0.00213266
0.00216967
0.00174647
0.00209918
0.00298368
0.00339039
0.00388809
0.00500015
0.00571605
0.00549941
0.00536025
0.0060727
0.00698644
0.00713735
0.00655326
0.00604306
0.00615082
0.00126517
0.00129199
0.00157266
0.0021963
0.00226816
0.00181926
0.00211617
0.00299859
0.00344573
0.00388002
0.00486407
0.00556933
0.00542075
0.00522084
0.00576495
0.00660785
0.00683877
0.00632862
0.00577894
0.00578957
0.00136275
0.00137831
0.001613
0.00224469
0.00237488
0.00190572
0.00212194
0.0029946
0.00349944
0.0038844
0.00473061
0.00540453
0.0053235
0.00509256
0.00548151
0.00622805
0.00651844
0.0060999
0.00553821
0.00546142
0.00146071
0.00147292
0.00165629
0.00227587
0.00247945
0.00201076
0.00212418
0.00296655
0.00354262
0.00390163
0.0046095
0.00522718
0.00520392
0.00496786
0.00522244
0.00585762
0.00618084
0.00586038
0.00531438
0.00516639
0.00155859
0.00157495
0.00170665
0.00228971
0.00257064
0.00213349
0.0021357
0.00291616
0.0035623
0.00392753
0.00450886
0.00504527
0.00506198
0.00483894
0.00498469
0.00550424
0.00583293
0.00560569
0.00510096
0.00489861
0.00165578
0.00168253
0.00176674
0.00228931
0.00264104
0.00226919
0.00216838
0.0028494
0.00354804
0.0039527
0.00443215
0.00487069
0.00490187
0.00469955
0.00476369
0.00517086
0.00548284
0.00533592
0.00489127
0.00465675
0.00175198
0.00179382
0.0018377
0.0022803
0.0026868
0.0024092
0.00222771
0.00277946
0.00349766
0.00396049
0.00437559
0.00471621
0.00473179
0.00454649
0.00455359
0.00485792
0.00513717
0.00505447
0.00467921
0.00443598
0.00184725
0.00190502
0.0019203
0.00227041
0.00270732
0.00254043
0.00231171
0.00272312
0.00341649
0.00393561
0.00432905
0.00458706
0.00456499
0.00438189
0.00434792
0.00456488
0.00480093
0.00476509
0.00446105
0.00423032
0.00194175
0.00201326
0.00201331
0.00226678
0.00270378
0.00265142
0.0024151
0.00269138
0.0033171
0.00387301
0.00427539
0.0044796
0.00441458
0.00421408
0.00414238
0.00428836
0.00447758
0.00447159
0.00423555
0.0040334
0.00203583
0.00211661
0.00211357
0.00227509
0.00268158
0.00273553
0.00252819
0.0026871
0.0032178
0.00377652
0.00419902
0.00438474
0.00428424
0.00405508
0.00394045
0.00402367
0.0041683
0.00417865
0.00400331
0.00383896
0.00212969
0.00221365
0.00221667
0.00229965
0.00264985
0.00278973
0.00263766
0.00270727
0.00313283
0.00365702
0.00409323
0.00428776
0.00417155
0.0039121
0.00374941
0.00377083
0.00387184
0.00388959
0.00376623
0.00364445
0.00222349
0.00230454
0.00231663
0.0023404
0.00261885
0.00281515
0.00273222
0.00274627
0.00306839
0.00353208
0.00396114
0.00417464
0.00406926
0.00378688
0.00357541
0.00353481
0.00358935
0.00360603
0.0035255
0.00344858
0.00231704
0.00238986
0.0024093
0.00239449
0.00259671
0.00281537
0.00280476
0.00279478
0.00302433
0.00341484
0.0038124
0.00403966
0.00396503
0.00367867
0.00342122
0.00332021
0.00332516
0.00333044
0.00328269
0.00325021
0.00240965
0.00247047
0.002493
0.00245702
0.00258748
0.0027988
0.00285159
0.00284326
0.00299888
0.00331225
0.00366161
0.00388723
0.00384699
0.00358012
0.00328903
0.00312896
0.00308423
0.00306814
0.0030404
0.00304823
0.00250034
0.00254727
0.0025675
0.00252209
0.00259168
0.00277533
0.00287367
0.00288327
0.00298689
0.00322627
0.0035187
0.00372686
0.00371377
0.00347989
0.00317723
0.00296313
0.00286789
0.00282534
0.00280397
0.00284393
0.0025879
0.00262128
0.00263371
0.0025841
0.00260695
0.00275228
0.00287459
0.00290903
0.00298172
0.00315734
0.00338935
0.0035684
0.00357119
0.00337032
0.00307734
0.00282441
0.00267763
0.00260655
0.00258093
0.00264157
0.00267109
0.00269225
0.00269297
0.00263991
0.00262987
0.00273364
0.00286052
0.00291866
0.00297704
0.00310337
0.0032778
0.00341902
0.00342677
0.00325436
0.00297971
0.00270957
0.00251615
0.00241291
0.00237715
0.0024464
0.00274894
0.00275958
0.00274638
0.00268829
0.00265609
0.00272079
0.0028381
0.00291347
0.00296815
0.00305911
0.00318476
0.00328601
0.00328728
0.00313807
0.00288248
0.00261052
0.00238461
0.00224626
0.00219749
0.00226627
0.00282054
0.00282227
0.00279498
0.0027294
0.00268122
0.00271242
0.00281213
0.00289587
0.00295337
0.0030214
0.00310789
0.0031734
0.00316063
0.00302742
0.00279064
0.0025215
0.00227984
0.00211018
0.002044
0.00210804
0.00288523
0.00287946
0.00283819
0.00276358
0.00270316
0.00270695
0.002785
0.00286859
0.00293127
0.00298837
0.00304502
0.0030805
0.0030546
0.00293053
0.0027123
0.00244842
0.00219863
0.00200582
0.00191726
0.00197254
0.00294223
0.00293021
0.00287579
0.00279039
0.00271983
0.00270227
0.00275895
0.00283616
0.00290237
0.00295727
0.0029952
0.00300561
0.00296929
0.0028532
0.00265358
0.00240106
0.00214809
0.00193957
0.00182669
0.00186617
0.00299077
0.00297306
0.00290776
0.00281037
0.002729
0.00269494
0.00273282
0.00280146
0.00286909
0.0029272
0.0029593
0.00295389
0.00290761
0.00279735
0.00261356
0.00237724
0.00212898
0.00191284
0.0017797
0.00179713
0.00303067
0.00300891
0.00293247
0.00282359
0.00273123
0.0026824
0.00270396
0.00276309
0.00283072
0.00289509
0.00293349
0.00293106
0.0028847
0.00278051
0.00261086
0.00238902
0.00214804
0.00192679
0.00177645
0.00176657
0.00305958
0.00303449
0.00295052
0.00283124
0.00272691
0.00266468
0.00267163
0.00272094
0.00278644
0.00285372
0.00290127
0.0029239
0.00291176
0.00283713
0.00269768
0.002499
0.00226983
0.00204637
0.00187877
0.00184274
0.00307562
0.00304817
0.00296077
0.00283287
0.00271555
0.00264159
0.00263675
0.00267705
0.00273905
0.0028026
0.0028334
0.00284511
0.00286328
0.00284594
0.00276909
0.00262558
0.00242976
0.00221957
0.00203857
0.00196633
0.00308307
0.00305368
0.00295698
0.00281844
0.00269579
0.00261438
0.00259772
0.00262943
0.00270489
0.00282387
0.00294742
0.00303236
0.0030928
0.0031147
0.00308731
0.00299173
0.00282829
0.00260226
0.00234525
0.00213954
0.00308332
0.0030488
0.00293563
0.00278061
0.00264933
0.00256471
0.00253548
0.00253005
0.00252077
0.00249625
0.00248943
0.00261032
0.00289877
0.00322284
0.00344571
0.00355144
0.00361237
0.0036929
0.00379619
0.00387106
0.00305616
0.00302506
0.00294113
0.00280854
0.00267582
0.00257619
0.0025068
0.00246693
0.00249535
0.00267051
0.00295387
0.00322548
0.00342795
0.00354151
0.00359954
0.00364976
0.00370173
0.00372472
0.00370944
0.00362759
0.0030124
0.00297314
0.00285181
0.00269579
0.00256443
0.00248702
0.00251293
0.00264157
0.00280992
0.00296502
0.00307142
0.00313471
0.00318342
0.00323868
0.00334585
0.00350362
0.00371068
0.00397587
0.00422921
0.00435278
0.00292473
0.00293497
0.002905
0.00284545
0.0028085
0.00278336
0.00279332
0.00283964
0.00290462
0.00299112
0.00309421
0.00319114
0.00331515
0.00341507
0.00343811
0.0033732
0.00316464
0.00282815
0.00242259
0.00205834
0.00277594
0.00276637
0.00282642
0.00286375
0.0028678
0.00283274
0.00281056
0.00282621
0.00286717
0.00292891
0.00303877
0.00313813
0.0032393
0.00337072
0.00349165
0.0036239
0.00380323
0.00401193
0.00418029
0.00421734
0.0026976
0.00272205
0.00284342
0.00295239
0.00301965
0.00303059
0.00300942
0.00300559
0.00303039
0.00305867
0.00313679
0.00323849
0.00333382
0.00346741
0.00362177
0.00376857
0.00387364
0.00390783
0.00384761
0.00366229
0.0403037
0.0295571
0.0174773
0.00911362
0.00576525
0.00551466
0.00586008
0.00585979
0.00550747
0.00515052
0.00494085
0.00470981
0.0044003
0.00413018
0.00386794
0.00351571
0.00316411
0.00291475
0.00269295
0.00243349
0.00215521
0.00186209
0.00159225
0.00140107
0.00122857
0.000988393
0.000707247
0.000458411
0.000267634
0.000104397
-6.96501e-05
-0.000239057
-0.000377147
-0.000511764
-0.000666127
-0.000816261
-0.000964285
-0.00114316
-0.0013584
-0.00157729
-0.00177775
-0.00196884
-0.00215958
-0.00233067
-0.0024792
-0.00264039
-0.00283072
-0.00302142
-0.00320976
-0.00342707
-0.00368297
-0.00392565
-0.00413162
-0.00435942
-0.00461012
-0.00482762
-0.00503855
-0.0052738
-0.00549677
-0.00570969
-0.00593183
-0.00618754
-0.0064723
-0.00675876
-0.0070215
-0.00728148
-0.00753511
-0.00779933
-0.00807682
-0.00835699
-0.00864043
-0.00893664
-0.00924155
-0.00953794
-0.00984195
-0.0101429
-0.0104544
-0.0107628
-0.0110847
-0.0114021
-0.0117245
-0.0120452
-0.0123697
-0.0126988
-0.0130373
-0.013381
-0.0137346
-0.0140824
-0.0144482
-0.0148085
-0.0151979
-0.0155819
-0.0159861
-0.0163981
-0.0168185
-0.0172843
-0.0177504
-0.0182965
-0.0188713
-0.019444
0.0384267
0.0293208
0.0175491
0.00925597
0.00586199
0.00556248
0.00588831
0.00587819
0.00552017
0.00516028
0.00494938
0.00471743
0.00440683
0.00413601
0.00387337
0.0035205
0.00316815
0.00291837
0.0026963
0.0024365
0.00215793
0.00186451
0.0015943
0.00140291
0.00123038
0.000990091
0.000708745
0.000459718
0.000268817
0.000105525
-6.85885e-05
-0.000238099
-0.000376253
-0.0005109
-0.000665317
-0.000815498
-0.000963522
-0.00114239
-0.00135766
-0.0015766
-0.00177708
-0.00196819
-0.00215895
-0.00233009
-0.00247863
-0.00263981
-0.00283017
-0.0030209
-0.00320925
-0.00342657
-0.00368248
-0.00392522
-0.0041312
-0.00435899
-0.00460973
-0.00482726
-0.00503818
-0.00527345
-0.00549645
-0.00570938
-0.00593153
-0.00618724
-0.00647202
-0.00675851
-0.00702126
-0.00728125
-0.00753488
-0.00779911
-0.00807661
-0.0083568
-0.00864024
-0.00893646
-0.00924137
-0.00953777
-0.00984179
-0.0101427
-0.0104542
-0.0107627
-0.0110845
-0.011402
-0.0117244
-0.012045
-0.0123695
-0.0126987
-0.0130372
-0.0133809
-0.0137345
-0.0140823
-0.0144481
-0.0148084
-0.0151978
-0.0155818
-0.015986
-0.016398
-0.0168184
-0.0172842
-0.0177504
-0.0182965
-0.0188713
-0.0194441
0.0370221
0.0291697
0.0177303
0.00952279
0.00602238
0.00562298
0.00591849
0.00590075
0.00553719
0.00517294
0.0049593
0.0047255
0.00441343
0.00414168
0.00387854
0.0035251
0.00317216
0.00292201
0.00269957
0.00243937
0.00216052
0.00186683
0.00159628
0.00140469
0.00123208
0.000991639
0.000710088
0.000460901
0.000269894
0.000106541
-6.76487e-05
-0.000237252
-0.000375443
-0.000510117
-0.000664607
-0.000814827
-0.000962837
-0.00114172
-0.00135704
-0.00157603
-0.00177653
-0.00196765
-0.00215843
-0.00232959
-0.00247813
-0.00263931
-0.00282969
-0.00302045
-0.0032088
-0.00342612
-0.00368208
-0.00392486
-0.00413083
-0.00435862
-0.00460941
-0.00482695
-0.00503786
-0.00527316
-0.00549618
-0.00570911
-0.00593125
-0.00618696
-0.00647177
-0.00675829
-0.00702105
-0.00728105
-0.00753469
-0.00779892
-0.00807643
-0.00835662
-0.00864007
-0.00893629
-0.00924122
-0.00953762
-0.00984164
-0.0101426
-0.0104541
-0.0107625
-0.0110844
-0.0114018
-0.0117243
-0.0120449
-0.0123694
-0.0126986
-0.0130371
-0.0133808
-0.0137344
-0.0140822
-0.014448
-0.0148083
-0.0151977
-0.0155817
-0.0159859
-0.0163979
-0.0168184
-0.0172842
-0.0177503
-0.0182964
-0.0188713
-0.0194442
0.0357115
0.0289622
0.0179324
0.00984167
0.00623225
0.0057064
0.00596313
0.00593569
0.0055642
0.00519279
0.00497358
0.00473616
0.00442184
0.00414845
0.0038843
0.00353054
0.00317748
0.00292688
0.00270365
0.00244279
0.00216375
0.00186998
0.00159909
0.00140709
0.00123414
0.000993459
0.000711751
0.000462402
0.000271198
0.0001077
-6.65809e-05
-0.00023626
-0.000374495
-0.000509236
-0.000663833
-0.000814103
-0.00096211
-0.00114102
-0.00135641
-0.00157547
-0.001776
-0.00196712
-0.00215791
-0.00232908
-0.00247761
-0.00263879
-0.0028292
-0.00301997
-0.00320832
-0.00342565
-0.00368167
-0.0039245
-0.00413045
-0.00435824
-0.00460908
-0.00482663
-0.00503753
-0.00527287
-0.00549591
-0.00570883
-0.00593096
-0.00618668
-0.00647152
-0.00675808
-0.00702084
-0.00728084
-0.00753448
-0.00779872
-0.00807625
-0.00835645
-0.0086399
-0.00893613
-0.00924107
-0.00953747
-0.0098415
-0.0101424
-0.010454
-0.0107624
-0.0110843
-0.0114017
-0.0117241
-0.0120448
-0.0123693
-0.0126985
-0.013037
-0.0133807
-0.0137343
-0.0140821
-0.0144479
-0.0148082
-0.0151976
-0.0155816
-0.0159859
-0.0163979
-0.0168183
-0.0172841
-0.0177502
-0.0182964
-0.0188713
-0.0194445
0.0344019
0.0286722
0.0181266
0.0101729
0.00646042
0.00580073
0.00601489
0.00597928
0.00560074
0.00522092
0.00499365
0.00475084
0.00443348
0.00415734
0.00389121
0.00353732
0.0031848
0.00293371
0.00270906
0.00244708
0.00216792
0.00187453
0.00160354
0.00141074
0.00123696
0.000995963
0.000714252
0.000464698
0.000273037
0.000109195
-6.51926e-05
-0.000234915
-0.000373238
-0.000508118
-0.000662854
-0.0008132
-0.000961254
-0.00114023
-0.00135572
-0.00157488
-0.00177548
-0.0019666
-0.00215736
-0.00232853
-0.00247706
-0.00263824
-0.00282865
-0.00301942
-0.00320779
-0.00342515
-0.00368122
-0.00392409
-0.00413003
-0.00435782
-0.00460872
-0.00482627
-0.00503716
-0.00527254
-0.0054956
-0.00570851
-0.00593063
-0.00618635
-0.00647124
-0.00675785
-0.00702061
-0.00728061
-0.00753426
-0.00779849
-0.00807604
-0.00835625
-0.00863971
-0.00893595
-0.0092409
-0.00953731
-0.00984135
-0.0101423
-0.0104538
-0.0107623
-0.0110842
-0.0114016
-0.011724
-0.0120447
-0.0123692
-0.0126984
-0.0130369
-0.0133805
-0.0137342
-0.014082
-0.0144478
-0.0148081
-0.0151975
-0.0155815
-0.0159858
-0.0163978
-0.0168182
-0.017284
-0.0177501
-0.0182963
-0.0188712
-0.0194448
0.0331063
0.0283175
0.018313
0.0105069
0.00669675
0.00589905
0.00606642
0.00602478
0.00564195
0.0052543
0.00501801
0.00476903
0.00444822
0.00416845
0.00389944
0.00354558
0.00319419
0.00294258
0.00271595
0.00245235
0.00217306
0.00188059
0.00160986
0.00141588
0.00124073
0.000999453
0.00071808
0.000468295
0.000275745
0.000111202
-6.33325e-05
-0.000233057
-0.000371558
-0.000506684
-0.00066157
-0.000812005
-0.000960174
-0.00113927
-0.00135488
-0.00157421
-0.00177496
-0.00196609
-0.00215678
-0.00232794
-0.0024765
-0.00263765
-0.002828
-0.00301877
-0.00320719
-0.00342461
-0.0036807
-0.00392361
-0.00412957
-0.00435738
-0.00460832
-0.00482586
-0.00503675
-0.00527218
-0.00549524
-0.00570814
-0.00593025
-0.00618598
-0.00647093
-0.00675758
-0.00702034
-0.00728034
-0.007534
-0.00779823
-0.0080758
-0.00835603
-0.00863949
-0.00893574
-0.00924072
-0.00953714
-0.00984118
-0.0101421
-0.0104536
-0.0107621
-0.011084
-0.0114015
-0.0117239
-0.0120446
-0.0123691
-0.0126983
-0.0130368
-0.0133804
-0.0137341
-0.0140819
-0.0144477
-0.014808
-0.0151974
-0.0155814
-0.0159857
-0.0163977
-0.0168181
-0.0172839
-0.01775
-0.0182961
-0.0188711
-0.0194453
0.0318418
0.0279094
0.0184859
0.0108382
0.00693875
0.00600064
0.00611638
0.00606995
0.00568538
0.00529075
0.00504514
0.00478958
0.00446513
0.00418124
0.00390883
0.0035551
0.0032052
0.00295301
0.00272405
0.00245848
0.00217907
0.00188799
0.00161786
0.00142232
0.00124531
0.00100395
0.000723474
0.000473564
0.000279655
0.000113938
-6.08446e-05
-0.000230561
-0.00036939
-0.000504913
-0.000659953
-0.000810462
-0.000958791
-0.00113802
-0.00135375
-0.00157332
-0.00177438
-0.00196558
-0.00215616
-0.00232733
-0.00247599
-0.00263709
-0.00282727
-0.00301799
-0.00320651
-0.00342399
-0.00368007
-0.00392303
-0.00412905
-0.0043569
-0.00460785
-0.00482539
-0.0050363
-0.00527176
-0.00549483
-0.00570772
-0.00592982
-0.00618555
-0.00647056
-0.00675727
-0.00702003
-0.00728002
-0.00753369
-0.00779793
-0.00807552
-0.00835576
-0.00863924
-0.00893551
-0.00924051
-0.00953693
-0.00984099
-0.0101419
-0.0104535
-0.0107619
-0.0110838
-0.0114013
-0.0117237
-0.0120444
-0.0123689
-0.0126981
-0.0130366
-0.0133803
-0.013734
-0.0140818
-0.0144476
-0.0148079
-0.0151973
-0.0155813
-0.0159855
-0.0163976
-0.0168179
-0.0172838
-0.0177498
-0.0182959
-0.0188709
-0.0194458
0.0306208
0.0274491
0.0186355
0.0111629
0.00718707
0.00610795
0.00616594
0.00611447
0.00573027
0.00532953
0.00507434
0.00481175
0.0044834
0.00419519
0.00391915
0.00356557
0.0032173
0.00296445
0.00273293
0.00246526
0.00218579
0.00189642
0.00162705
0.00142959
0.00125033
0.00100916
0.000730244
0.000480501
0.000284922
0.000117597
-5.75885e-05
-0.00022735
-0.0003667
-0.000502816
-0.00065805
-0.000808636
-0.000957141
-0.00113644
-0.00135218
-0.00157205
-0.00177359
-0.00196496
-0.00215542
-0.00232668
-0.00247558
-0.00263663
-0.00282648
-0.00301707
-0.00320575
-0.00342327
-0.00367926
-0.00392228
-0.00412846
-0.00435636
-0.0046073
-0.00482487
-0.00503583
-0.00527131
-0.00549434
-0.00570723
-0.00592932
-0.00618506
-0.00647013
-0.00675691
-0.00701966
-0.00727965
-0.00753333
-0.00779757
-0.00807518
-0.00835544
-0.00863894
-0.00893523
-0.00924026
-0.00953669
-0.00984076
-0.0101417
-0.0104533
-0.0107617
-0.0110837
-0.0114012
-0.0117236
-0.0120443
-0.0123688
-0.012698
-0.0130365
-0.0133802
-0.0137338
-0.0140816
-0.0144475
-0.0148078
-0.0151972
-0.0155812
-0.0159854
-0.0163975
-0.0168178
-0.0172836
-0.0177496
-0.0182955
-0.0188705
-0.0194464
0.0294497
0.0269368
0.0187546
0.0114804
0.00744409
0.00622373
0.00621601
0.00615753
0.00577572
0.00537014
0.00510524
0.00483511
0.00450266
0.00420999
0.00393016
0.00357669
0.00323013
0.00297661
0.0027424
0.00247251
0.00219303
0.00190557
0.00163702
0.00143734
0.0012555
0.0010147
0.000737899
0.000488707
0.0002914
0.000122216
-5.35118e-05
-0.000223419
-0.000363497
-0.000500402
-0.000655917
-0.00080665
-0.000955375
-0.00113462
-0.00135016
-0.00157029
-0.00177243
-0.00196405
-0.00215442
-0.00232589
-0.00247526
-0.00263632
-0.00282572
-0.00301611
-0.00320495
-0.00342247
-0.00367824
-0.0039213
-0.00412775
-0.00435573
-0.00460662
-0.00482427
-0.00503535
-0.00527084
-0.00549382
-0.00570668
-0.00592875
-0.00618447
-0.00646962
-0.00675647
-0.00701922
-0.00727921
-0.0075329
-0.00779715
-0.00807477
-0.00835505
-0.00863858
-0.00893488
-0.00923994
-0.00953639
-0.00984049
-0.0101415
-0.010453
-0.0107615
-0.0110835
-0.011401
-0.0117234
-0.0120441
-0.0123686
-0.0126978
-0.0130363
-0.01338
-0.0137337
-0.0140815
-0.0144473
-0.0148076
-0.015197
-0.0155811
-0.0159852
-0.0163973
-0.0168176
-0.0172834
-0.0177494
-0.018295
-0.01887
-0.0194471
0.0283321
0.026377
0.0188399
0.0117905
0.00771044
0.00634894
0.00626635
0.00619782
0.00582067
0.00541221
0.00513778
0.00485963
0.00452276
0.00422547
0.00394164
0.00358822
0.00324349
0.00298935
0.00275237
0.00248017
0.00220066
0.0019152
0.00164753
0.00144546
0.00126079
0.00102036
0.000745998
0.00049768
0.000298744
0.000127648
-4.86876e-05
-0.000218841
-0.000359828
-0.000497682
-0.000653573
-0.000804588
-0.00095365
-0.00113276
-0.00134784
-0.00156804
-0.00177083
-0.00196277
-0.00215302
-0.00232481
-0.00247491
-0.00263616
-0.00282508
-0.0030152
-0.00320422
-0.00342165
-0.00367703
-0.00392007
-0.00412686
-0.00435495
-0.00460576
-0.00482355
-0.00503485
-0.00527037
-0.0054933
-0.00570614
-0.00592814
-0.0061838
-0.006469
-0.00675593
-0.0070187
-0.0072787
-0.00753241
-0.00779667
-0.00807428
-0.00835457
-0.00863813
-0.00893446
-0.00923954
-0.00953602
-0.00984015
-0.0101411
-0.0104527
-0.0107612
-0.0110832
-0.0114007
-0.0117232
-0.0120439
-0.0123684
-0.0126976
-0.0130361
-0.0133798
-0.0137335
-0.0140813
-0.0144472
-0.0148075
-0.0151969
-0.0155809
-0.0159851
-0.0163972
-0.0168173
-0.0172831
-0.0177491
-0.0182943
-0.0188692
-0.0194479
0.0272713
0.0257774
0.0188889
0.0120901
0.00798371
0.00648364
0.00631739
0.00623492
0.00586452
0.00545559
0.00517208
0.0048854
0.00454367
0.00424147
0.00395342
0.00360002