/*--------------------------------*- C++ -*----------------------------------*\
| =========                 |                                                 |
| \\      /  F ield         | OpenFOAM: The Open Source CFD Toolbox           |
|  \\    /   O peration     | Version:  2506                                  |
|   \\  /    A nd           | Website:  www.openfoam.com                      |
|    \\/     M anipulation  |                                                 |
\*---------------------------------------------------------------------------*/
FoamFile
{
    version     2.0;
    format      ascii;
    arch        "LSB;label=32;scalar=64";
    class       volVectorField;
    location    "4.05";
    object      U;
}
// * * * * * * * * * * * * * * * * * * * * * * * * * * * * * * * * * * * * * //

dimensions      [0 1 -1 0 0 0 0];

internalField   nonuniform List<vector> 
9600
(
(0.731674 -0.00302652 0)
(1.21048 -0.00120316 0)
(0.889084 -0.00814003 0)
(1.20955 0.0167491 0)
(0.841949 0.0108187 0)
(1.05792 -0.0118405 0)
(0.857933 -0.032522 0)
(1.13164 -0.0238304 0)
(0.963311 -0.0169765 0)
(1.18421 -0.00129959 0)
(0.945736 0.00847551 0)
(1.13591 0.0108815 0)
(0.909072 0.00820713 0)
(1.08131 0.00416764 0)
(0.930765 -0.0064452 0)
(1.07659 -0.0116905 0)
(0.924999 -0.0135367 0)
(1.08915 -0.0202957 0)
(0.901552 -0.00496702 0)
(1.10548 -0.0240973 0)
(0.751496 -0.0027221 0)
(1.19115 -0.00226635 0)
(0.907235 -0.00843023 0)
(1.19632 0.0170316 0)
(0.887976 0.0120978 0)
(1.02887 -0.0117159 0)
(0.883499 -0.0338728 0)
(1.09427 -0.0251605 0)
(0.97723 -0.0180439 0)
(1.16296 -0.00088491 0)
(0.971557 0.00883996 0)
(1.10607 0.0115676 0)
(0.955517 0.00908689 0)
(1.04154 0.00381839 0)
(0.988507 -0.00630814 0)
(1.02452 -0.0117225 0)
(0.995095 -0.0134921 0)
(1.01102 -0.0204888 0)
(0.996274 -0.00418858 0)
(0.996328 -0.0255653 0)
(0.787032 -0.00246501 0)
(1.15415 -0.00315076 0)
(0.935416 -0.00866979 0)
(1.17017 0.0174588 0)
(0.943798 0.0134999 0)
(1.00917 -0.0113832 0)
(0.912966 -0.0343785 0)
(1.04972 -0.026063 0)
(0.997097 -0.0189487 0)
(1.12611 -0.000753335 0)
(1.00739 0.00962755 0)
(1.07186 0.0120636 0)
(0.999102 0.0100445 0)
(1.02369 0.00339387 0)
(1.01425 -0.00605287 0)
(1.01316 -0.0117796 0)
(1.00721 -0.0133106 0)
(1.00074 -0.0198837 0)
(1.00136 -0.00538111 0)
(1.00011 -0.0209785 0)
(0.83251 -0.00216299 0)
(1.1067 -0.00400271 0)
(0.964653 -0.0089527 0)
(1.13713 0.01752 0)
(0.988674 0.0147789 0)
(0.999557 -0.0108834 0)
(0.936725 -0.0347413 0)
(1.01064 -0.027065 0)
(1.00992 -0.0198887 0)
(1.08861 -0.000962992 0)
(1.03229 0.0103357 0)
(1.05277 0.01226 0)
(1.02387 0.0106599 0)
(1.02703 0.003292 0)
(1.02418 -0.00582831 0)
(1.01644 -0.0115962 0)
(1.00934 -0.0128152 0)
(0.999905 -0.0198114 0)
(0.998494 -0.00521053 0)
(0.997056 -0.0194048 0)
(0.880313 -0.00180085 0)
(1.0598 -0.00481702 0)
(0.987511 -0.00933725 0)
(1.10353 0.0173081 0)
(1.01664 0.0158828 0)
(0.999974 -0.0102135 0)
(0.954058 -0.0346703 0)
(0.985067 -0.0279312 0)
(1.01133 -0.0208372 0)
(1.05981 -0.00139783 0)
(1.04236 0.0106883 0)
(1.04735 0.0124021 0)
(1.03745 0.0109803 0)
(1.03631 0.00336458 0)
(1.03224 -0.00548184 0)
(1.02094 -0.0112582 0)
(1.01277 -0.0122692 0)
(0.999899 -0.0193292 0)
(0.997004 -0.00520948 0)
(0.993765 -0.0180595 0)
(0.923211 -0.00141994 0)
(1.02304 -0.0055 0)
(1.00057 -0.00979951 0)
(1.07371 0.0170473 0)
(1.03012 0.0167337 0)
(1.00652 -0.00947136 0)
(0.967082 -0.0343493 0)
(0.972599 -0.0286288 0)
(1.0051 -0.0217619 0)
(1.04 -0.00199643 0)
(1.04332 0.0107116 0)
(1.04793 0.0124548 0)
(1.04665 0.0111149 0)
(1.0453 0.00351252 0)
(1.03956 -0.00500865 0)
(1.02546 -0.0107956 0)
(1.0158 -0.0115911 0)
(1.00138 -0.0186219 0)
(0.995878 -0.00527776 0)
(0.99202 -0.0165654 0)
(0.956542 -0.00106946 0)
(1.00067 -0.00598709 0)
(1.00426 -0.0102767 0)
(1.04941 0.0167863 0)
(1.03451 0.017276 0)
(1.01496 -0.00874251 0)
(0.977884 -0.0338059 0)
(0.968934 -0.0290897 0)
(0.996762 -0.0225851 0)
(1.02606 -0.00272647 0)
(1.04067 0.0104393 0)
(1.04976 0.0123156 0)
(1.0535 0.0111282 0)
(1.05243 0.00369072 0)
(1.04496 -0.00443481 0)
(1.02919 -0.0101788 0)
(1.01785 -0.0108378 0)
(1.00312 -0.017734 0)
(0.995313 -0.00528609 0)
(0.990973 -0.014956 0)
(0.979017 -0.000788457 0)
(0.991254 -0.00626596 0)
(1.00146 -0.010707 0)
(1.03056 0.016491 0)
(1.03468 0.0175149 0)
(1.02265 -0.00809224 0)
(0.987168 -0.0331233 0)
(0.970004 -0.0293267 0)
(0.989697 -0.0232775 0)
(1.01564 -0.00359388 0)
(1.03715 0.00989474 0)
(1.05104 0.0119738 0)
(1.05798 0.01105 0)
(1.05688 0.00390365 0)
(1.04771 -0.00376064 0)
(1.03106 -0.00943978 0)
(1.01876 -0.0100434 0)
(1.00423 -0.0166923 0)
(0.995183 -0.00521962 0)
(0.990354 -0.0133075 0)
(0.992098 -0.00059441 0)
(0.990173 -0.00636454 0)
(0.99573 -0.0110347 0)
(1.01641 0.0161248 0)
(1.03344 0.0175027 0)
(1.02848 -0.00754121 0)
(0.994894 -0.0323417 0)
(0.973232 -0.0293625 0)
(0.984927 -0.0238219 0)
(1.00765 -0.00458024 0)
(1.03354 0.0091306 0)
(1.05095 0.0114732 0)
(1.05956 0.0109197 0)
(1.05797 0.00417508 0)
(1.04745 -0.00300534 0)
(1.0306 -0.00862255 0)
(1.0183 -0.00923343 0)
(1.0045 -0.0155461 0)
(0.995118 -0.00511294 0)
(0.990097 -0.0116816 0)
(0.998614 -0.000481109 0)
(0.992678 -0.00632704 0)
(0.990017 -0.0112386 0)
(1.00627 0.0156674 0)
(1.03181 0.0172923 0)
(1.03218 -0.00708183 0)
(1.00095 -0.0315055 0)
(0.977188 -0.029234 0)
(0.982181 -0.0242157 0)
(1.00137 -0.0056232 0)
(1.02951 0.00821172 0)
(1.04871 0.0108655 0)
(1.05763 0.0107796 0)
(1.05537 0.00450755 0)
(1.0442 -0.00221148 0)
(1.02791 -0.00775556 0)
(1.01646 -0.00845558 0)
(1.00393 -0.0143592 0)
(0.994896 -0.00499586 0)
(0.990063 -0.0101208 0)
(1.00136 -0.000428363 0)
(0.995703 -0.00619708 0)
(0.985967 -0.011337 0)
(0.999508 0.0151306 0)
(1.02988 0.0169177 0)
(1.03385 -0.00671027 0)
(1.00535 -0.030648 0)
(0.981092 -0.0289758 0)
(0.980859 -0.0244558 0)
(0.996057 -0.00666626 0)
(1.02425 0.00720487 0)
(1.04359 0.0102087 0)
(1.05195 0.0106492 0)
(1.04928 0.00488069 0)
(1.03847 -0.00142956 0)
(1.02352 -0.00687918 0)
(1.01356 -0.00776254 0)
(1.00268 -0.01319 0)
(0.994458 -0.00487862 0)
(0.990103 -0.00866662 0)
(1.00233 -0.000414055 0)
(0.998017 -0.00601418 0)
(0.984009 -0.0113524 0)
(0.995303 0.0145358 0)
(1.02747 0.0164559 0)
(1.03381 -0.0064141 0)
(1.00826 -0.0297893 0)
(0.98453 -0.0286169 0)
(0.980478 -0.0245344 0)
(0.991177 -0.00765577 0)
(1.01723 0.00618661 0)
(1.03551 0.00955645 0)
(1.04305 0.0105314 0)
(1.0406 0.0052606 0)
(1.03122 -0.000716046 0)
(1.01823 -0.00604914 0)
(1.01011 -0.00717964 0)
(1.00101 -0.0120855 0)
(0.993843 -0.00476555 0)
(0.990115 -0.00736008 0)
(1.00259 -0.000421258 0)
(0.999494 -0.00580961 0)
(0.983812 -0.0113027 0)
(0.9927 0.0139242 0)
(1.02455 0.01596 0)
(1.03253 -0.00618387 0)
(1.00994 -0.028947 0)
(0.98731 -0.0281869 0)
(0.980713 -0.0244541 0)
(0.986646 -0.00851666 0)
(1.00881 0.00523671 0)
(1.02534 0.00894262 0)
(1.03228 0.0104071 0)
(1.03075 0.00559903 0)
(1.0236 -0.000123907 0)
(1.01291 -0.00530772 0)
(1.00666 -0.00671295 0)
(0.999257 -0.0110708 0)
(0.993154 -0.00465722 0)
(0.990061 -0.00623332 0)
(1.00262 -0.000440952 0)
(1.00037 -0.00560129 0)
(0.984759 -0.0112051 0)
(0.990891 0.0133353 0)
(1.0213 0.0154389 0)
(1.03056 -0.00601977 0)
(1.01072 -0.0281328 0)
(0.989387 -0.0277157 0)
(0.981312 -0.0242287 0)
(0.982698 -0.00920431 0)
(1.00007 0.00440882 0)
(1.01462 0.00837565 0)
(1.02138 0.0102414 0)
(1.02123 0.00585354 0)
(1.01663 0.000318819 0)
(1.00823 -0.0046679 0)
(1.00365 -0.006348 0)
(0.997686 -0.0101659 0)
(0.992517 -0.00454135 0)
(0.989957 -0.00529103 0)
(1.00256 -0.000467584 0)
(1.00087 -0.00540145 0)
(0.986234 -0.0110696 0)
(0.989444 0.0127795 0)
(1.01809 0.0149056 0)
(1.0284 -0.00591352 0)
(1.0109 -0.027347 0)
(0.990823 -0.0272235 0)
(0.982059 -0.0238828 0)
(0.9796 -0.00970456 0)
(0.992246 0.00371882 0)
(1.00491 0.00784942 0)
(1.0118 0.0100043 0)
(1.01315 0.00600295 0)
(1.01096 0.000589386 0)
(1.00457 -0.00413699 0)
(1.00132 -0.00605103 0)
(0.996479 -0.00937676 0)
(0.992042 -0.00440366 0)
(0.989857 -0.00451538 0)
(1.0025 -0.000497574 0)
(1.00113 -0.0052175 0)
(0.987777 -0.010898 0)
(0.988274 0.0122601 0)
(1.01527 0.0143707 0)
(1.02638 -0.0058577 0)
(1.01075 -0.0265854 0)
(0.991745 -0.02672 0)
(0.9828 -0.0234436 0)
(0.977458 -0.0100331 0)
(0.986115 0.00315428 0)
(0.997199 0.00735358 0)
(1.00437 0.00968573 0)
(1.00702 0.00604478 0)
(1.0068 0.000707896 0)
(1.00198 -0.00371221 0)
(0.999716 -0.00578943 0)
(0.99569 -0.00868619 0)
(0.991787 -0.00424018 0)
(0.989816 -0.00387642 0)
(1.00243 -0.000529039 0)
(1.00122 -0.00504968 0)
(0.989121 -0.0106944 0)
(0.987443 0.0117738 0)
(1.01305 0.0138388 0)
(1.02467 -0.00584709 0)
(1.01043 -0.0258406 0)
(0.992302 -0.0262075 0)
(0.983454 -0.0229353 0)
(0.976204 -0.0102198 0)
(0.981891 0.00269078 0)
(0.99177 0.00688306 0)
(0.999206 0.00928501 0)
(1.00282 0.00599624 0)
(1.00401 0.000720499 0)
(1.00031 -0.00337216 0)
(0.998714 -0.00553669 0)
(0.99528 -0.00807741 0)
(0.991751 -0.00405284 0)
(0.989867 -0.00333208 0)
(1.00238 -0.000560091 0)
(1.00119 -0.00489625 0)
(0.990164 -0.0104633 0)
(0.986995 0.0113092 0)
(1.01146 0.0133096 0)
(1.0233 -0.00587137 0)
(1.01005 -0.0251047 0)
(0.992631 -0.0256846 0)
(0.984008 -0.0223806 0)
(0.975672 -0.0103007 0)
(0.979359 0.00229366 0)
(0.988384 0.00643352 0)
(0.995998 0.00881155 0)
(1.00019 0.00587498 0)
(1.00228 0.000660574 0)
(0.999326 -0.00310606 0)
(0.998147 -0.00526983 0)
(0.995155 -0.00752904 0)
(0.991892 -0.00384981 0)
(0.990014 -0.00285175 0)
(1.00232 -0.000589582 0)
(1.00112 -0.00475405 0)
(0.990915 -0.0102102 0)
(0.986899 0.0108537 0)
(1.01038 0.0127804 0)
(1.02221 -0.00591902 0)
(1.00963 -0.024369 0)
(0.992842 -0.0251489 0)
(0.984485 -0.0217987 0)
(0.975675 -0.0103104 0)
(0.978114 0.00193383 0)
(0.986561 0.00599493 0)
(0.994231 0.00828286 0)
(0.998684 0.00569713 0)
(1.00127 0.000561826 0)
(0.998787 -0.00290207 0)
(0.997844 -0.00498037 0)
(0.995211 -0.00702182 0)
(0.992151 -0.00364519 0)
(0.990238 -0.00241067 0)
(1.00224 -0.00061742 0)
(1.00103 -0.00461891 0)
(0.991433 -0.00994165 0)
(0.987075 0.010399 0)
(1.00964 0.0122523 0)
(1.02132 -0.00598028 0)
(1.0092 -0.0236311 0)
(0.993009 -0.024596 0)
(0.984914 -0.0212051 0)
(0.976044 -0.0102712 0)
(0.97773 0.00158845 0)
(0.985787 0.0055622 0)
(0.993398 0.00772167 0)
(0.997882 0.00548403 0)
(1.00067 0.000452063 0)
(0.998504 -0.00273809 0)
(0.997671 -0.00467332 0)
(0.995357 -0.00653924 0)
(0.992473 -0.00344986 0)
(0.990511 -0.0019956 0)
(1.00214 -0.000642668 0)
(1.00097 -0.00449098 0)
(0.991791 -0.0096595 0)
(0.987432 0.00993479 0)
(1.0091 0.0117267 0)
(1.02056 -0.0060486 0)
(1.00876 -0.0228912 0)
(0.993175 -0.0240273 0)
(0.985323 -0.0206089 0)
(0.976646 -0.0102011 0)
(0.977856 0.00124152 0)
(0.985637 0.00513882 0)
(0.993091 0.00714468 0)
(0.99747 0.00523819 0)
(1.00027 0.000349891 0)
(0.998342 -0.00260634 0)
(0.997542 -0.00434795 0)
(0.995533 -0.00606869 0)
(0.992816 -0.00327225 0)
(0.99081 -0.00161123 0)
(1.00201 -0.000665015 0)
(1.00094 -0.00436938 0)
(0.992051 -0.00936641 0)
(0.987894 0.00945739 0)
(1.00864 0.0112027 0)
(1.01986 -0.00612048 0)
(1.0083 -0.022149 0)
(0.993359 -0.0234393 0)
(0.985728 -0.0200182 0)
(0.977383 -0.0101103 0)
(0.978248 0.000894383 0)
(0.985809 0.00471866 0)
(0.993031 0.00655726 0)
(0.99724 0.00496991 0)
(0.999936 0.000262101 0)
(0.998224 -0.00249927 0)
(0.997414 -0.00401235 0)
(0.9957 -0.00560372 0)
(0.993158 -0.00311022 0)
(0.99112 -0.00126077 0)
(1.00185 -0.00068505 0)
(1.00095 -0.00425091 0)
(0.992259 -0.0090658 0)
(0.988409 0.0089695 0)
(1.0082 0.0106811 0)
(1.01919 -0.00619116 0)
(1.00783 -0.0214074 0)
(0.993558 -0.0228283 0)
(0.986141 -0.0194373 0)
(0.978193 -0.0100062 0)
(0.978759 0.000546491 0)
(0.98612 0.00429749 0)
(0.993063 0.00596916 0)
(0.997074 0.00468472 0)
(0.999613 0.000196612 0)
(0.99811 -0.00240382 0)
(0.997274 -0.00369299 0)
(0.995843 -0.00513674 0)
(0.993487 -0.00294851 0)
(0.991431 -0.000950986 0)
(1.00166 -0.000703132 0)
(1.00097 -0.00413494 0)
(0.992449 -0.00875796 0)
(0.988944 0.00847269 0)
(1.00777 0.0101621 0)
(1.01853 -0.00625761 0)
(1.00737 -0.0206691 0)
(0.993763 -0.022199 0)
(0.986566 -0.0188635 0)
(0.979034 -0.00989145 0)
(0.979318 0.000193996 0)
(0.986474 0.00388081 0)
(0.993118 0.00539092 0)
(0.996921 0.00437688 0)
(0.999281 0.000150797 0)
(0.997986 -0.0023148 0)
(0.997129 -0.00339096 0)
(0.995961 -0.00467683 0)
(0.993801 -0.00278808 0)
(0.991741 -0.000681603 0)
(1.00147 -0.000717902 0)
(1.001 -0.00402445 0)
(0.992643 -0.00844554 0)
(0.989479 0.00796805 0)
(1.00734 0.0096443 0)
(1.01785 -0.00631735 0)
(1.00691 -0.0199378 0)
(0.993962 -0.0215499 0)
(0.987007 -0.018299 0)
(0.979883 -0.00976696 0)
(0.979899 -0.00015586 0)
(0.986833 0.00346403 0)
(0.993177 0.00483425 0)
(0.996763 0.00404971 0)
(0.998942 0.000120816 0)
(0.997852 -0.00223325 0)
(0.996988 -0.00309492 0)
(0.996054 -0.00423137 0)
(0.994106 -0.002639 0)
(0.992051 -0.000449862 0)
(1.00129 -0.000729458 0)
(1.00102 -0.00391874 0)
(0.992853 -0.00813057 0)
(0.99 0.00745767 0)
(1.00691 0.00912958 0)
(1.01716 -0.00637086 0)
(1.00646 -0.0192164 0)
(0.994146 -0.020882 0)
(0.987465 -0.0177437 0)
(0.980724 -0.00963411 0)
(0.980495 -0.000498242 0)
(0.987183 0.00304424 0)
(0.993242 0.00429988 0)
(0.996602 0.00370704 0)
(0.998606 9.3704e-05 0)
(0.997712 -0.00215144 0)
(0.996862 -0.00281877 0)
(0.996125 -0.00379445 0)
(0.994406 -0.00249652 0)
(0.992367 -0.000272597 0)
(1.00113 -0.000739052 0)
(1.00102 -0.00381369 0)
(0.993086 -0.00781363 0)
(0.990501 0.00694482 0)
(1.0065 0.00861674 0)
(1.01645 -0.0064149 0)
(1.00603 -0.0185059 0)
(0.99431 -0.0201998 0)
(0.987938 -0.0171986 0)
(0.98155 -0.00949305 0)
(0.981104 -0.000832152 0)
(0.987522 0.00262532 0)
(0.993317 0.00378535 0)
(0.996442 0.00336048 0)
(0.998282 7.06433e-05 0)
(0.99757 -0.00207144 0)
(0.996756 -0.00256673 0)
(0.996177 -0.00336399 0)
(0.994697 -0.00234562 0)
(0.992695 -0.000159285 0)
(1.00099 -0.00074569 0)
(1.00099 -0.00370942 0)
(0.993342 -0.00749973 0)
(0.990981 0.00643347 0)
(1.0061 0.008104 0)
(1.01572 -0.00644656 0)
(1.00563 -0.0178078 0)
(0.994456 -0.0195055 0)
(0.988423 -0.0166658 0)
(0.982358 -0.00934786 0)
(0.981723 -0.00115546 0)
(0.98785 0.00220793 0)
(0.993406 0.00329216 0)
(0.996289 0.00301952 0)
(0.99797 5.44933e-05 0)
(0.997428 -0.00199053 0)
(0.996675 -0.00234237 0)
(0.996213 -0.00294954 0)
(0.994975 -0.00216871 0)
(0.993037 -9.81759e-05 0)
(1.00088 -0.000748971 0)
(1.00095 -0.00360649 0)
(0.993618 -0.00719001 0)
(0.991441 0.00592351 0)
(1.00571 0.00759336 0)
(1.01498 -0.00646716 0)
(1.00524 -0.0171237 0)
(0.994588 -0.0187983 0)
(0.988915 -0.0161473 0)
(0.983148 -0.00920016 0)
(0.982347 -0.00146428 0)
(0.98817 0.00179445 0)
(0.993506 0.00281949 0)
(0.996145 0.00267579 0)
(0.997671 3.47067e-05 0)
(0.997286 -0.00189709 0)
(0.996616 -0.00215629 0)
(0.99624 -0.00256933 0)
(0.995232 -0.00195937 0)
(0.993388 -6.60121e-05 0)
(1.0008 -0.000749796 0)
(1.00088 -0.00350276 0)
(0.993906 -0.00688437 0)
(0.991888 0.00541605 0)
(1.00533 0.00708434 0)
(1.01423 -0.00647606 0)
(1.00487 -0.016458 0)
(0.99471 -0.0180792 0)
(0.98941 -0.0156354 0)
(0.983925 -0.00905308 0)
(0.982971 -0.00174788 0)
(0.988483 0.0013855 0)
(0.993613 0.00236545 0)
(0.996014 0.00233839 0)
(0.997386 1.53439e-05 0)
(0.997143 -0.00180162 0)
(0.996574 -0.00199117 0)
(0.996266 -0.00222863 0)
(0.995467 -0.00173369 0)
(0.993741 -4.29075e-05 0)
(1.00072 -0.000747753 0)
(1.00081 -0.00339748 0)
(0.994201 -0.00658693 0)
(0.992322 0.00491399 0)
(1.00496 0.00657984 0)
(1.01347 -0.00647727 0)
(1.00451 -0.0158083 0)
(0.994826 -0.0173515 0)
(0.989902 -0.0151285 0)
(0.98469 -0.00891014 0)
(0.983592 -0.00200785 0)
(0.988789 0.000979636 0)
(0.993726 0.00192629 0)
(0.995897 0.00201803 0)
(0.997113 -5.173e-06 0)
(0.997001 -0.00170968 0)
(0.996546 -0.00183276 0)
(0.996291 -0.00192254 0)
(0.995677 -0.00151484 0)
(0.99409 -2.52729e-05 0)
(1.00066 -0.000742168 0)
(1.00073 -0.00329207 0)
(0.994497 -0.00629471 0)
(0.992749 0.00441799 0)
(1.00459 0.00608178 0)
(1.01272 -0.00647156 0)
(1.00416 -0.015177 0)
(0.994937 -0.016617 0)
(0.990388 -0.0146337 0)
(0.985445 -0.0087751 0)
(0.984207 -0.00224443 0)
(0.989091 0.000587595 0)
(0.993847 0.00150233 0)
(0.995798 0.00170997 0)
(0.996853 -2.40364e-05 0)
(0.996861 -0.0016242 0)
(0.996532 -0.00168716 0)
(0.996318 -0.00164578 0)
(0.995861 -0.00130239 0)
(0.994429 -1.0736e-05 0)
(1.00061 -0.00073507 0)
(1.00065 -0.00318391 0)
(0.994791 -0.00600775 0)
(0.993168 0.00392367 0)
(1.00423 0.00559362 0)
(1.01197 -0.00645491 0)
(1.00383 -0.0145713 0)
(0.995044 -0.0158783 0)
(0.990862 -0.0141412 0)
(0.986191 -0.00864776 0)
(0.984815 -0.0024586 0)
(0.989387 0.000220256 0)
(0.993974 0.00109237 0)
(0.99572 0.00140895 0)
(0.996606 -3.97557e-05 0)
(0.996724 -0.00153583 0)
(0.996531 -0.00156385 0)
(0.996349 -0.00139034 0)
(0.99602 -0.00108531 0)
(0.994753 3.6312e-06 0)
(1.00055 -0.000724024 0)
(1.00057 -0.00307872 0)
(0.99508 -0.00572472 0)
(0.993579 0.00342731 0)
(1.00387 0.00511613 0)
(1.01123 -0.0064241 0)
(1.00351 -0.0139862 0)
(0.995148 -0.0151376 0)
(0.991322 -0.0136451 0)
(0.986927 -0.00853006 0)
(0.985417 -0.00265362 0)
(0.989678 -0.000117947 0)
(0.994107 0.000694302 0)
(0.995664 0.00110801 0)
(0.996376 -5.80983e-05 0)
(0.996588 -0.00143809 0)
(0.996542 -0.00146756 0)
(0.996389 -0.00116833 0)
(0.996152 -0.000862313 0)
(0.995056 2.73579e-05 0)
(1.0005 -0.000708251 0)
(1.00049 -0.00297976 0)
(0.995362 -0.0054399 0)
(0.993983 0.00293267 0)
(1.00351 0.00464683 0)
(1.0105 -0.0063775 0)
(1.00321 -0.0134258 0)
(0.995251 -0.0143988 0)
(0.991765 -0.0131463 0)
(0.987651 -0.00842447 0)
(0.986012 -0.00282909 0)
(0.989961 -0.000424936 0)
(0.994242 0.000314768 0)
(0.995633 0.000815405 0)
(0.996165 -7.33458e-05 0)
(0.996451 -0.00133324 0)
(0.996559 -0.0013833 0)
(0.996443 -0.000994844 0)
(0.996265 -0.000646143 0)
(0.995327 7.42592e-05 0)
(1.00046 -0.000690592 0)
(1.00042 -0.00288439 0)
(0.995634 -0.00514683 0)
(0.994379 0.00243207 0)
(1.00316 0.00418938 0)
(1.00978 -0.00631468 0)
(1.00292 -0.0129039 0)
(0.995352 -0.013665 0)
(0.992186 -0.0126406 0)
(0.988364 -0.00833309 0)
(0.986604 -0.00299797 0)
(0.990235 -0.000705111 0)
(0.99438 -4.95024e-05 0)
(0.995628 0.000523303 0)
(0.995976 -8.61855e-05 0)
(0.996311 -0.00122583 0)
(0.996578 -0.00130397 0)
(0.99651 -0.000858114 0)
(0.996365 -0.00045182 0)
(0.995563 0.000143908 0)
(1.00041 -0.000668043 0)
(1.00035 -0.0027985 0)
(0.995896 -0.00484698 0)
(0.994765 0.00193725 0)
(1.00282 0.00372609 0)
(1.00906 -0.00622321 0)
(1.00265 -0.0124225 0)
(0.995455 -0.0129454 0)
(0.992584 -0.0121199 0)
(0.989061 -0.00824754 0)
(0.987193 -0.00316232 0)
(0.990501 -0.000948281 0)
(0.994517 -0.00038968 0)
(0.99565 0.00023211 0)
(0.995813 -0.000105679 0)
(0.996168 -0.00111812 0)
(0.996595 -0.00123824 0)
(0.996588 -0.000754566 0)
(0.996459 -0.000284144 0)
(0.995763 0.000227101 0)
(1.00036 -0.000640437 0)
(1.00029 -0.00272715 0)
(0.996147 -0.00453996 0)
(0.995139 0.00145849 0)
(1.00249 0.00326598 0)
(1.00835 -0.0060972 0)
(1.00239 -0.0119705 0)
(0.995563 -0.0122578 0)
(0.992956 -0.0115786 0)
(0.989739 -0.00815846 0)
(0.987783 -0.0033182 0)
(0.99076 -0.00115239 0)
(0.99465 -0.000692924 0)
(0.995699 -5.8196e-05 0)
(0.995679 -0.000132721 0)
(0.996021 -0.00100187 0)
(0.996604 -0.00118028 0)
(0.996677 -0.000684409 0)
(0.996549 -0.000143035 0)
(0.995928 0.000317653 0)
(1.00032 -0.000609125 0)
(1.00024 -0.00266891 0)
(0.996386 -0.00422223 0)
(0.9955 0.000992211 0)
(1.00217 0.00280922 0)
(1.00766 -0.00594042 0)
(1.00215 -0.0115388 0)
(0.995677 -0.0116098 0)
(0.993302 -0.0110189 0)
(0.990395 -0.00806024 0)
(0.988376 -0.00347861 0)
(0.991016 -0.00133362 0)
(0.994775 -0.000961984 0)
(0.995773 -0.000352682 0)
(0.995579 -0.000174824 0)
(0.995872 -0.000874573 0)
(0.996599 -0.00111317 0)
(0.996775 -0.000644084 0)
(0.996644 -3.06178e-05 0)
(0.996065 0.000412594 0)
(1.00027 -0.000574214 0)
(1.00019 -0.00262419 0)
(0.996613 -0.00390651 0)
(0.995846 0.000557672 0)
(1.00187 0.00233368 0)
(1.00698 -0.00574567 0)
(1.00192 -0.0111189 0)
(0.995802 -0.0110109 0)
(0.993624 -0.0104475 0)
(0.991024 -0.00794088 0)
(0.988971 -0.0036428 0)
(0.99127 -0.00149696 0)
(0.994889 -0.00119424 0)
(0.995869 -0.000641606 0)
(0.99552 -0.000243918 0)
(0.995727 -0.000746483 0)
(0.996575 -0.00103079 0)
(0.996876 -0.000632585 0)
(0.996748 4.05157e-05 0)
(0.99618 0.000504692 0)
(1.00023 -0.000533342 0)
(1.00016 -0.00259323 0)
(0.99683 -0.00360297 0)
(0.996173 0.000171987 0)
(1.0016 0.0018407 0)
(1.00631 -0.00553552 0)
(1.0017 -0.0106978 0)
(0.995941 -0.0104652 0)
(0.993924 -0.00987991 0)
(0.99162 -0.00778536 0)
(0.989568 -0.00379727 0)
(0.991527 -0.00164698 0)
(0.99499 -0.00139309 0)
(0.99598 -0.000924494 0)
(0.995505 -0.000347175 0)
(0.995595 -0.000632266 0)
(0.996529 -0.000935098 0)
(0.996974 -0.000638722 0)
(0.996869 6.94552e-05 0)
(0.996284 0.000591181 0)
(1.00019 -0.000495638 0)
(1.00013 -0.002563 0)
(0.997038 -0.00331669 0)
(0.99648 -0.000160806 0)
(1.00134 0.00134996 0)
(1.00567 -0.00532437 0)
(1.0015 -0.0102678 0)
(0.996096 -0.00998076 0)
(0.994209 -0.0093291 0)
(0.992182 -0.00758521 0)
(0.990161 -0.00392824 0)
(0.991787 -0.00178728 0)
(0.995075 -0.00155486 0)
(0.996102 -0.00118698 0)
(0.995535 -0.000477514 0)
(0.995484 -0.000536955 0)
(0.996463 -0.000827136 0)
(0.997062 -0.000644124 0)
(0.997013 5.53895e-05 0)
(0.996389 0.00065628 0)
(1.00015 -0.000452075 0)
(1.00011 -0.0025433 0)
(0.99724 -0.00305707 0)
(0.996768 -0.000426284 0)
(1.00111 0.000838491 0)
(1.00506 -0.00511777 0)
(1.0013 -0.00981308 0)
(0.996267 -0.00954914 0)
(0.994486 -0.00881354 0)
(0.992709 -0.00735083 0)
(0.990746 -0.00403612 0)
(0.992054 -0.00192427 0)
(0.995147 -0.00168736 0)
(0.996227 -0.00142854 0)
(0.995609 -0.000633923 0)
(0.995401 -0.000474704 0)
(0.996378 -0.000703635 0)
(0.997128 -0.000632499 0)
(0.997174 5.095e-06 0)
(0.996511 0.000683528 0)
(1.00012 -0.000414213 0)
(1.00011 -0.00251038 0)
(0.997442 -0.00284509 0)
(0.997025 -0.000620327 0)
(1.00089 0.000327091 0)
(1.00449 -0.0049447 0)
(1.00109 -0.0093183 0)
(0.996439 -0.00913087 0)
(0.994758 -0.00834364 0)
(0.993208 -0.00709407 0)
(0.991329 -0.00411553 0)
(0.99234 -0.00205288 0)
(0.995215 -0.00179582 0)
(0.996353 -0.00164663 0)
(0.995725 -0.000814818 0)
(0.995355 -0.000453885 0)
(0.996281 -0.000581911 0)
(0.997156 -0.000600067 0)
(0.997334 -6.55727e-05 0)
(0.996653 0.000659641 0)
(1.00008 -0.000381219 0)
(1.00011 -0.00246626 0)
(0.997639 -0.00268147 0)
(0.997263 -0.000748502 0)
(1.00069 -0.000140008 0)
(1.00395 -0.00479879 0)
(1.00091 -0.00877989 0)
(0.996618 -0.00871073 0)
(0.99503 -0.00793565 0)
(0.993679 -0.00684195 0)
(0.991895 -0.00417164 0)
(0.992632 -0.00217824 0)
(0.995273 -0.00187897 0)
(0.996473 -0.00182606 0)
(0.995878 -0.00101353 0)
(0.995358 -0.000473879 0)
(0.996187 -0.000481291 0)
(0.997156 -0.000544074 0)
(0.997489 -0.000136559 0)
(0.996832 0.000580163 0)
(1.00005 -0.000347628 0)
(1.00011 -0.00241776 0)
(0.997842 -0.00256416 0)
(0.99748 -0.000820784 0)
(1.00051 -0.000545948 0)
(1.00347 -0.0046841 0)
(1.00074 -0.0082419 0)
(0.996796 -0.00827892 0)
(0.9953 -0.00755956 0)
(0.994129 -0.00660845 0)
(0.992446 -0.00421601 0)
(0.992933 -0.00230731 0)
(0.99533 -0.00194579 0)
(0.996581 -0.00197036 0)
(0.996062 -0.00121629 0)
(0.995416 -0.000530625 0)
(0.996115 -0.000404783 0)
(0.99713 -0.000473239 0)
(0.997621 -0.000183025 0)
(0.99704 0.000461073 0)
(1.00003 -0.000330762 0)
(1.00012 -0.00233613 0)
(0.998047 -0.00249641 0)
(0.997681 -0.000868259 0)
(1.00033 -0.000868481 0)
(1.00303 -0.00460421 0)
(1.00059 -0.00773984 0)
(0.99697 -0.00782537 0)
(0.995561 -0.00719154 0)
(0.994557 -0.00639309 0)
(0.992985 -0.00424212 0)
(0.993248 -0.00241839 0)
(0.995391 -0.00198705 0)
(0.996679 -0.00206785 0)
(0.996271 -0.001403 0)
(0.995529 -0.000623351 0)
(0.996071 -0.000357301 0)
(0.997088 -0.000408194 0)
(0.99772 -0.000199801 0)
(0.997259 0.000333663 0)
(1 -0.000317281 0)
(1.00013 -0.00223858 0)
(0.998254 -0.00247105 0)
(0.997872 -0.000908176 0)
(1.00015 -0.00110613 0)
(1.00263 -0.00454943 0)
(1.00046 -0.00728331 0)
(0.997142 -0.00734552 0)
(0.99581 -0.00681103 0)
(0.994965 -0.00617785 0)
(0.993516 -0.00426486 0)
(0.99358 -0.00252037 0)
(0.995461 -0.00201576 0)
(0.996762 -0.00212837 0)
(0.996491 -0.00157465 0)
(0.995695 -0.000751406 0)
(0.996069 -0.000340231 0)
(0.997047 -0.000354275 0)
(0.997789 -0.000200245 0)
(0.997467 0.000226884 0)
(0.999982 -0.000314519 0)
(1.00013 -0.0021253 0)
(0.998462 -0.00246751 0)
(0.99806 -0.000961274 0)
(0.999984 -0.00125394 0)
(1.00227 -0.00449211 0)
(1.00037 -0.00688064 0)
(0.99732 -0.00687216 0)
(0.996042 -0.0064034 0)
(0.995344 -0.00594615 0)
(0.994036 -0.00428893 0)
(0.993933 -0.0026288 0)
(0.995546 -0.00204321 0)
(0.996832 -0.00215601 0)
(0.996714 -0.00171649 0)
(0.995911 -0.000896697 0)
(0.996115 -0.000357021 0)
(0.997012 -0.000310366 0)
(0.997837 -0.000196799 0)
(0.997653 0.000145923 0)
(0.999965 -0.000320438 0)
(1.00013 -0.00199362 0)
(0.998666 -0.0024784 0)
(0.998251 -0.00104824 0)
(0.999819 -0.00133048 0)
(1.00193 -0.00439424 0)
(1.00032 -0.00652977 0)
(0.997509 -0.00643574 0)
(0.996261 -0.00598174 0)
(0.995688 -0.00569605 0)
(0.994538 -0.00430169 0)
(0.994308 -0.00274115 0)
(0.995657 -0.0020694 0)
(0.996894 -0.00214314 0)
(0.996928 -0.00181519 0)
(0.996165 -0.00104788 0)
(0.996216 -0.000409772 0)
(0.996996 -0.00028003 0)
(0.99787 -0.000194088 0)
(0.997812 8.06197e-05 0)
(0.99995 -0.000334808 0)
(1.00013 -0.00185036 0)
(0.998861 -0.00248772 0)
(0.998448 -0.00117258 0)
(0.999668 -0.00136178 0)
(1.00161 -0.00424331 0)
(1.00028 -0.00623115 0)
(0.997718 -0.00604491 0)
(0.99647 -0.00555297 0)
(0.995994 -0.00540782 0)
(0.995015 -0.00428509 0)
(0.994705 -0.00285738 0)
(0.995803 -0.00211005 0)
(0.996955 -0.00211687 0)
(0.997125 -0.00187218 0)
(0.996441 -0.00118871 0)
(0.996369 -0.000494239 0)
(0.997006 -0.000269904 0)
(0.997893 -0.000192026 0)
(0.997949 2.56933e-05 0)
(0.999939 -0.000353222 0)
(1.00012 -0.00170813 0)
(0.99904 -0.00247869 0)
(0.998653 -0.0013363 0)
(0.999536 -0.00136587 0)
(1.00131 -0.00402395 0)
(1.00027 -0.00595776 0)
(0.997951 -0.00572887 0)
(0.996682 -0.00515057 0)
(0.996261 -0.00507597 0)
(0.995454 -0.00422061 0)
(0.99511 -0.00296354 0)
(0.995986 -0.00216328 0)
(0.997028 -0.00208972 0)
(0.997306 -0.00189123 0)
(0.996727 -0.0013052 0)
(0.996572 -0.000600865 0)
(0.997054 -0.000285989 0)
(0.997915 -0.000188751 0)
(0.998068 -2.24233e-05 0)
(0.99993 -0.000372809 0)
(1.00011 -0.00156999 0)
(0.999197 -0.00244345 0)
(0.998865 -0.00152057 0)
(0.999436 -0.00137176 0)
(1.00101 -0.00374892 0)
(1.00025 -0.00566256 0)
(0.998204 -0.00549059 0)
(0.996909 -0.00479823 0)
(0.996498 -0.00472458 0)
(0.995846 -0.00410633 0)
(0.995514 -0.00304917 0)
(0.996204 -0.00222958 0)
(0.997119 -0.0020663 0)
(0.997472 -0.00188646 0)
(0.997008 -0.00139152 0)
(0.996811 -0.000712619 0)
(0.997143 -0.000328979 0)
(0.997942 -0.000189271 0)
(0.99817 -6.5499e-05 0)
(0.999923 -0.000393352 0)
(1.00009 -0.00143746 0)
(0.999329 -0.00238074 0)
(0.999078 -0.00170019 0)
(0.999372 -0.00139727 0)
(1.00073 -0.00345117 0)
(1.00021 -0.005331 0)
(0.998467 -0.0053004 0)
(0.997162 -0.00451782 0)
(0.996713 -0.0043736 0)
(0.996186 -0.00392517 0)
(0.9959 -0.00309125 0)
(0.996451 -0.00230777 0)
(0.997235 -0.0020578 0)
(0.997632 -0.00187234 0)
(0.99728 -0.00145567 0)
(0.997074 -0.000818196 0)
(0.997275 -0.000394748 0)
(0.997982 -0.000202341 0)
(0.998256 -0.000101134 0)
(0.999917 -0.000407352 0)
(1.00007 -0.00132344 0)
(0.999432 -0.00227966 0)
(0.999288 -0.00186814 0)
(0.999348 -0.00145434 0)
(1.00046 -0.00315725 0)
(1.00014 -0.00495495 0)
(0.998721 -0.00511615 0)
(0.997445 -0.00432891 0)
(0.996931 -0.00406285 0)
(0.996479 -0.00369771 0)
(0.99625 -0.00307213 0)
(0.996712 -0.00237503 0)
(0.997378 -0.00206384 0)
(0.997787 -0.00184895 0)
(0.997538 -0.00149779 0)
(0.997349 -0.000911654 0)
(0.997443 -0.000473666 0)
(0.998044 -0.000232984 0)
(0.99833 -0.000133918 0)
(0.999911 -0.000414312 0)
(1.00005 -0.00122803 0)
(0.999508 -0.00213723 0)
(0.999482 -0.0020118 0)
(0.999362 -0.0015473 0)
(1.00023 -0.00289113 0)
(1.00006 -0.00454435 0)
(0.998944 -0.00489873 0)
(0.997746 -0.00420147 0)
(0.997163 -0.00381389 0)
(0.996738 -0.00345991 0)
(0.996556 -0.00298999 0)
(0.996972 -0.00241118 0)
(0.997545 -0.0020892 0)
(0.997946 -0.00183161 0)
(0.997779 -0.00152172 0)
(0.997626 -0.000996273 0)
(0.997638 -0.000557458 0)
(0.99813 -0.000278524 0)
(0.998399 -0.000167271 0)
(0.999904 -0.000411404 0)
(1.00004 -0.00115403 0)
(0.999559 -0.00197432 0)
(0.999653 -0.00210534 0)
(0.999413 -0.00166424 0)
(1.00005 -0.0026611 0)
(0.999951 -0.0041306 0)
(0.999124 -0.00463892 0)
(0.998049 -0.00409215 0)
(0.99742 -0.00363989 0)
(0.996981 -0.00323711 0)
(0.996821 -0.00286053 0)
(0.997207 -0.00239533 0)
(0.997723 -0.0021064 0)
(0.998114 -0.00182906 0)
(0.998007 -0.00153435 0)
(0.997897 -0.00106634 0)
(0.997855 -0.000643915 0)
(0.998241 -0.000335875 0)
(0.998472 -0.000209058 0)
(0.999897 -0.000398429 0)
(1.00004 -0.00109817 0)
(0.999591 -0.00180403 0)
(0.999794 -0.00213571 0)
(0.99949 -0.00179566 0)
(0.999906 -0.00247747 0)
(0.999838 -0.00373442 0)
(0.999257 -0.00433544 0)
(0.998333 -0.00396472 0)
(0.997695 -0.00352679 0)
(0.997228 -0.0030556 0)
(0.997057 -0.00271367 0)
(0.997416 -0.00233635 0)
(0.997893 -0.0020964 0)
(0.998285 -0.00183032 0)
(0.998227 -0.00154866 0)
(0.998155 -0.00111854 0)
(0.998083 -0.00072765 0)
(0.998373 -0.000399236 0)
(0.998552 -0.000259001 0)
(0.99989 -0.000377503 0)
(1.00004 -0.00105499 0)
(0.999611 -0.00164127 0)
(0.999901 -0.00210081 0)
(0.999584 -0.00191734 0)
(0.999817 -0.0023529 0)
(0.999732 -0.00337063 0)
(0.999348 -0.00400465 0)
(0.99858 -0.00380072 0)
(0.997976 -0.00343014 0)
(0.997488 -0.00293127 0)
(0.997276 -0.00256981 0)
(0.997596 -0.00224667 0)
(0.998047 -0.0020604 0)
(0.998448 -0.00181561 0)
(0.998439 -0.00156535 0)
(0.998404 -0.00116435 0)
(0.998313 -0.000805495 0)
(0.998522 -0.000469842 0)
(0.998642 -0.000313341 0)
(0.999883 -0.000349615 0)
(1.00005 -0.00102062 0)
(0.999628 -0.00149762 0)
(0.999975 -0.00201219 0)
(0.99968 -0.00200032 0)
(0.999778 -0.00228063 0)
(0.999645 -0.00304522 0)
(0.999403 -0.00367484 0)
(0.998787 -0.0035999 0)
(0.998243 -0.00332307 0)
(0.997759 -0.00284731 0)
(0.9975 -0.00245498 0)
(0.997757 -0.00213679 0)
(0.998183 -0.0020004 0)
(0.998596 -0.00178493 0)
(0.998635 -0.00156896 0)
(0.99864 -0.00120857 0)
(0.998542 -0.000876137 0)
(0.998686 -0.000545664 0)
(0.998739 -0.000370674 0)
(0.999876 -0.000318966 0)