/*--------------------------------*- C++ -*----------------------------------*\
| =========                 |                                                 |
| \\      /  F ield         | OpenFOAM: The Open Source CFD Toolbox           |
|  \\    /   O peration     | Version:  2506                                  |
|   \\  /    A nd           | Website:  www.openfoam.com                      |
|    \\/     M anipulation  |                                                 |
\*---------------------------------------------------------------------------*/
FoamFile
{
    version     2.0;
    format      ascii;
    arch        "LSB;label=32;scalar=64";
    class       volVectorField;
    location    "1.95";
    object      U;
}
// * * * * * * * * * * * * * * * * * * * * * * * * * * * * * * * * * * * * * //

dimensions      [0 1 -1 0 0 0 0];

internalField   nonuniform List<vector> 
9600
(
(0.863078 -0.000652224 0)
(1.13798 -0.000346555 0)
(0.875812 0.0024932 0)
(1.09917 -0.00401782 0)
(0.862176 -0.00277615 0)
(1.17649 -0.00107009 0)
(0.893415 0.00135789 0)
(1.08282 0.00720944 0)
(0.913829 0.010051 0)
(1.06223 -0.00493017 0)
(0.876173 0.00403055 0)
(1.09983 -0.014956 0)
(0.846427 -0.00402668 0)
(1.13806 -0.0092274 0)
(0.838497 -0.00853537 0)
(1.15614 -0.00443899 0)
(0.851853 -0.00481307 0)
(1.14482 0.00144257 0)
(0.8585 0.00448899 0)
(1.13232 0.0090617 0)
(0.873276 -0.00073769 0)
(1.12693 -0.000264594 0)
(0.88744 0.00263727 0)
(1.08658 -0.00367539 0)
(0.875749 -0.00383417 0)
(1.16068 -0.00117776 0)
(0.908587 0.00221613 0)
(1.0687 0.00726067 0)
(0.931257 0.0100879 0)
(1.04294 -0.00410667 0)
(0.902663 0.00306833 0)
(1.06654 -0.0140455 0)
(0.882061 -0.00527621 0)
(1.09193 -0.00883359 0)
(0.891235 -0.00930838 0)
(1.09786 -0.00470291 0)
(0.924735 -0.00435333 0)
(1.06507 0.000630382 0)
(0.96083 0.00610214 0)
(1.01332 0.00742248 0)
(0.892373 -0.000801892 0)
(1.10604 -0.000240135 0)
(0.908557 0.00282731 0)
(1.06585 -0.00350258 0)
(0.900873 -0.00462647 0)
(1.13111 -0.00133145 0)
(0.93664 0.00306742 0)
(1.04449 0.00714625 0)
(0.956045 0.0102905 0)
(1.02104 -0.00368327 0)
(0.936768 0.00267595 0)
(1.03343 -0.0136625 0)
(0.92806 -0.00580342 0)
(1.04393 -0.00898889 0)
(0.950172 -0.00936803 0)
(1.04148 -0.00545227 0)
(0.982142 -0.00365674 0)
(1.01586 -2.79169e-05 0)
(0.998003 0.00685565 0)
(0.994769 0.00804068 0)
(0.916976 -0.000832346 0)
(1.07922 -0.000253822 0)
(0.933928 0.00302292 0)
(1.04237 -0.00338274 0)
(0.930721 -0.00524107 0)
(1.09476 -0.00157531 0)
(0.966951 0.00381878 0)
(1.02184 0.00705109 0)
(0.977344 0.0104603 0)
(1.00649 -0.00340253 0)
(0.964259 0.00245569 0)
(1.0115 -0.0134963 0)
(0.961589 -0.0059473 0)
(1.01467 -0.00945845 0)
(0.984139 -0.00925958 0)
(1.01461 -0.00616529 0)
(1.00393 -0.00319987 0)
(1.00646 -9.35525e-05 0)
(1.0027 0.00704982 0)
(1.00052 0.00906914 0)
(0.942489 -0.000832985 0)
(1.05197 -0.000302354 0)
(0.957814 0.00322322 0)
(1.02186 -0.00331041 0)
(0.957468 -0.00572134 0)
(1.06018 -0.00189157 0)
(0.989828 0.00445431 0)
(1.00826 0.00706319 0)
(0.991478 0.010555 0)
(1.00094 -0.00318948 0)
(0.981431 0.00236174 0)
(1.00168 -0.0133671 0)
(0.979005 -0.00602819 0)
(1.0022 -0.00990818 0)
(0.996205 -0.00921857 0)
(1.00626 -0.00665865 0)
(1.00817 -0.00301671 0)
(1.00756 4.33504e-06 0)
(1.00425 0.00713096 0)
(1.00337 0.0098671 0)
(0.964687 -0.000810296 0)
(1.02923 -0.000362599 0)
(0.97634 0.00339916 0)
(1.00795 -0.00328579 0)
(0.976646 -0.00605163 0)
(1.03309 -0.00219441 0)
(1.00192 0.00490257 0)
(1.00331 0.00714554 0)
(0.999877 0.0105867 0)
(1.0009 -0.00301672 0)
(0.991208 0.00233317 0)
(0.99931 -0.0132208 0)
(0.986697 -0.00608362 0)
(0.997625 -0.0102265 0)
(0.998173 -0.00926637 0)
(1.00271 -0.00700013 0)
(1.00696 -0.0030168 0)
(1.00704 5.1489e-05 0)
(1.00525 0.0071898 0)
(1.00426 0.0105061 0)
(0.981104 -0.000775408 0)
(1.01348 -0.000414981 0)
(0.988473 0.00352294 0)
(1.00093 -0.00327968 0)
(0.988052 -0.00623614 0)
(1.01482 -0.0024407 0)
(1.00525 0.00512981 0)
(1.00257 0.00722711 0)
(1.00483 0.010573 0)
(1.00275 -0.0028631 0)
(0.997168 0.00233826 0)
(1.0001 -0.0130329 0)
(0.99057 -0.00607856 0)
(0.995813 -0.0104443 0)
(0.997087 -0.00931742 0)
(0.999371 -0.00725722 0)
(1.00388 -0.00316225 0)
(1.00446 0.00012529 0)
(1.00437 0.00715113 0)
(1.00415 0.0110087 0)
(0.991443 -0.000739455 0)
(1.00443 -0.000451337 0)
(0.995322 0.00358962 0)
(0.998798 -0.00327152 0)
(0.993881 -0.00630084 0)
(1.00378 -0.00262108 0)
(1.00368 0.00518113 0)
(1.00244 0.00725505 0)
(1.00764 0.0105246 0)
(1.00457 -0.00272139 0)
(1.00126 0.00235215 0)
(1.00176 -0.0127968 0)
(0.993351 -0.00602777 0)
(0.995188 -0.0105516 0)
(0.995626 -0.00932143 0)
(0.996102 -0.00745519 0)
(1.00006 -0.00336701 0)
(1.00093 0.000242977 0)
(1.00202 0.00694303 0)
(1.00303 0.0113609 0)
(0.996957 -0.000708162 0)
(1.00015 -0.000473872 0)
(0.998736 0.0036092 0)
(0.999132 -0.00325707 0)
(0.996558 -0.00627365 0)
(0.997626 -0.00273622 0)
(1.00047 0.0051277 0)
(1.00165 0.00721061 0)
(1.00892 0.0104399 0)
(1.00582 -0.00259995 0)
(1.00413 0.00235897 0)
(1.00342 -0.0125228 0)
(0.995696 -0.00595201 0)
(0.995308 -0.0105322 0)
(0.99458 -0.00928844 0)
(0.993412 -0.00754422 0)
(0.99626 -0.00357965 0)
(0.997134 0.000351171 0)
(0.998926 0.0065958 0)
(1.00103 0.0115969 0)
(0.999416 -0.000681791 0)
(0.998528 -0.000489478 0)
(1.00026 0.0035953 0)
(1.00023 -0.00323735 0)
(0.997714 -0.00617843 0)
(0.994469 -0.00279527 0)
(0.997479 0.00502426 0)
(1.00038 0.00710189 0)
(1.00916 0.010313 0)
(1.0065 -0.0025032 0)
(1.00591 0.00234719 0)
(1.0048 -0.0122219 0)
(0.997525 -0.00586482 0)
(0.995857 -0.0103997 0)
(0.994055 -0.00922882 0)
(0.99154 -0.00748507 0)
(0.993031 -0.00379295 0)
(0.993528 0.000451926 0)
(0.995574 0.00619544 0)
(0.998404 0.0117157 0)
(1.00031 -0.000658231 0)
(0.998082 -0.000503716 0)
(1.00085 0.00355948 0)
(1.00128 -0.00321324 0)
(0.998184 -0.0060367 0)
(0.993052 -0.00281306 0)
(0.995385 0.00490318 0)
(0.999115 0.00694746 0)
(1.00882 0.0101465 0)
(1.0068 -0.00242543 0)
(1.00674 0.00231081 0)
(1.00581 -0.0118999 0)
(0.998735 -0.00578151 0)
(0.996523 -0.0101783 0)
(0.993929 -0.00914331 0)
(0.990442 -0.00729487 0)
(0.990649 -0.003985 0)
(0.990465 0.0005933 0)
(0.992343 0.00580841 0)
(0.995438 0.0116882 0)
(1.00056 -0.000635398 0)
(0.998039 -0.000518968 0)
(1.00098 0.0035096 0)
(1.00204 -0.00318556 0)
(0.998348 -0.0058664 0)
(0.992588 -0.00280429 0)
(0.994217 0.00478037 0)
(0.998139 0.00676745 0)
(1.00821 0.00994671 0)
(1.00687 -0.00235775 0)
(1.00687 0.00224858 0)
(1.00645 -0.0115591 0)
(0.999383 -0.00571523 0)
(0.997074 -0.00988714 0)
(0.994041 -0.00904961 0)
(0.989926 -0.00699277 0)
(0.98916 -0.00414042 0)
(0.988159 0.000780078 0)
(0.98959 0.00548546 0)
(0.992552 0.0115189 0)
(1.00061 -0.000612133 0)
(0.998093 -0.000535371 0)
(1.00091 0.00345055 0)
(1.00251 -0.00315522 0)
(0.998393 -0.00567967 0)
(0.992591 -0.00278014 0)
(0.993729 0.00466136 0)
(0.997489 0.00657878 0)
(1.00755 0.00971782 0)
(1.0068 -0.0022913 0)
(1.00659 0.00215959 0)
(1.00675 -0.0111966 0)
(0.999649 -0.00567518 0)
(0.997401 -0.00954 0)
(0.994266 -0.00896583 0)
(0.989773 -0.00660593 0)
(0.988434 -0.00423613 0)
(0.98667 0.000997683 0)
(0.987565 0.00527501 0)
(0.99017 0.011241 0)
(1.00063 -0.000587979 0)
(0.998149 -0.000552546 0)
(1.00079 0.00338556 0)
(1.00273 -0.00312296 0)
(0.998412 -0.00548369 0)
(0.992777 -0.00274789 0)
(0.993644 0.00454662 0)
(0.997102 0.00639112 0)
(1.00695 0.0094655 0)
(1.00664 -0.00221804 0)
(1.00618 0.00204556 0)
(1.00679 -0.0108111 0)
(0.999722 -0.00566078 0)
(0.997512 -0.00915028 0)
(0.994519 -0.00889821 0)
(0.989813 -0.00616464 0)
(0.988253 -0.00426791 0)
(0.985914 0.00121793 0)
(0.986335 0.00520279 0)
(0.988551 0.0108889 0)
(1.00065 -0.000562755 0)
(0.998188 -0.00057044 0)
(1.00068 0.00331705 0)
(1.00278 -0.00308942 0)
(0.998446 -0.00528246 0)
(0.993008 -0.002711 0)
(0.993756 0.00443381 0)
(0.996901 0.00620917 0)
(1.00646 0.00919479 0)
(1.00644 -0.0021345 0)
(1.00577 0.00190879 0)
(1.00668 -0.0104003 0)
(0.999734 -0.00567176 0)
(0.997471 -0.00872385 0)
(0.994758 -0.00884311 0)
(0.989942 -0.00569759 0)
(0.988391 -0.00424597 0)
(0.985717 0.00139744 0)
(0.985796 0.0052632 0)
(0.987716 0.010497 0)
(1.00069 -0.000536333 0)
(0.998212 -0.000589372 0)
(1.00061 0.00324664 0)
(1.00272 -0.00305458 0)
(0.998499 -0.0050787 0)
(0.993229 -0.00267017 0)
(0.993946 0.0043197 0)
(0.996826 0.00603448 0)
(1.00609 0.00890736 0)
(1.00622 -0.0020368 0)
(1.00542 0.00174956 0)
(1.00647 -0.00996078 0)
(0.999751 -0.00570775 0)
(0.997354 -0.00827051 0)
(0.994968 -0.0087866 0)
(0.99011 -0.00523231 0)
(0.98868 -0.00414471 0)
(0.985889 0.00151283 0)
(0.985755 0.00542799 0)
(0.987507 0.0101011 0)
(1.00072 -0.000508631 0)
(0.99823 -0.000609865 0)
(1.00057 0.00317556 0)
(1.00259 -0.00301814 0)
(0.998563 -0.00487445 0)
(0.993434 -0.00262504 0)
(0.994154 0.00420154 0)
(0.996833 0.00586787 0)
(1.00581 0.00860182 0)
(1.00601 -0.00192109 0)
(1.00514 0.00157094 0)
(1.00624 -0.00949439 0)
(0.999789 -0.00576589 0)
(0.997213 -0.0077882 0)
(0.995154 -0.00873593 0)
(0.990301 -0.00478304 0)
(0.98902 -0.00395768 0)
(0.986273 0.0015583 0)
(0.986016 0.00564995 0)
(0.987705 0.00973044 0)
(1.00075 -0.000479534 0)
(0.998252 -0.000632532 0)
(1.00054 0.00310468 0)
(1.00245 -0.00297974 0)
(0.998622 -0.0046713 0)
(0.99363 -0.00257447 0)
(0.994358 0.00407627 0)
(0.99689 0.00570923 0)
(1.00558 0.00827866 0)
(1.0058 -0.00178874 0)
(1.0049 0.00137361 0)
(1.00599 -0.00900764 0)
(0.999847 -0.00583708 0)
(0.997076 -0.00728891 0)
(0.995323 -0.00867215 0)
(0.990516 -0.00437718 0)
(0.989364 -0.00368605 0)
(0.986767 0.00154527 0)
(0.986435 0.00588052 0)
(0.988118 0.00940559 0)
(1.00075 -0.00044891 0)
(0.998288 -0.000657827 0)
(1.00052 0.00303416 0)
(1.00231 -0.00293867 0)
(0.998664 -0.00446986 0)
(0.99383 -0.00251669 0)
(0.994551 0.00394128 0)
(0.99698 0.00555912 0)
(1.00538 0.00793826 0)
(1.00561 -0.00164046 0)
(1.00467 0.0011611 0)
(1.00576 -0.00850609 0)
(0.999915 -0.00590836 0)
(0.996955 -0.00680016 0)
(0.995483 -0.00855891 0)
(0.990759 -0.00403584 0)
(0.989698 -0.00333553 0)
(0.987315 0.0014927 0)
(0.986923 0.00608163 0)
(0.988615 0.0091404 0)
(1.00073 -0.000416803 0)
(0.998344 -0.000685747 0)
(1.00048 0.00296343 0)
(1.00218 -0.00289437 0)
(0.998684 -0.00427029 0)
(0.994041 -0.00245211 0)
(0.994731 0.00379567 0)
(0.997092 0.00541777 0)
(1.00517 0.00758207 0)
(1.00544 -0.00147862 0)
(1.00444 0.000942743 0)
(1.00553 -0.00799343 0)
(0.999984 -0.00597792 0)
(0.996852 -0.00632276 0)
(0.995633 -0.00839194 0)
(0.991035 -0.00376044 0)
(0.990017 -0.00292584 0)
(0.987891 0.00142144 0)
(0.987436 0.00622652 0)
(0.989126 0.00894111 0)
(1.00069 -0.000383142 0)
(0.998421 -0.000716504 0)
(1.00043 0.00289279 0)
(1.00208 -0.00284545 0)
(0.998679 -0.0040754 0)
(0.994266 -0.00237786 0)
(0.994901 0.00363613 0)
(0.997221 0.00528751 0)
(1.00496 0.00720848 0)
(1.00527 -0.00130417 0)
(1.0042 0.00072121 0)
(1.00531 -0.00748039 0)
(1.00005 -0.0060311 0)
(0.996768 -0.00586971 0)
(0.995771 -0.00816891 0)
(0.991347 -0.00354069 0)
(0.990322 -0.00247901 0)
(0.988482 0.00134993 0)
(0.987961 0.00629854 0)
(0.989617 0.00880834 0)
(1.00063 -0.000348096 0)
(0.998519 -0.000749768 0)
(1.00036 0.00282223 0)
(1.00201 -0.00279136 0)
(0.998655 -0.00388718 0)
(0.994504 -0.00229216 0)
(0.995062 0.0034604 0)
(0.997362 0.00516893 0)
(1.00474 0.00682122 0)
(1.00511 -0.00112166 0)
(1.00397 0.000498925 0)
(1.0051 -0.00698016 0)
(1.00011 -0.00604965 0)
(0.996702 -0.00544985 0)
(0.995894 -0.00789264 0)
(0.991692 -0.00336664 0)
(0.990617 -0.00201212 0)
(0.989079 0.00129519 0)
(0.988497 0.00629251 0)
(0.990083 0.00873293 0)
(1.00056 -0.000311732 0)
(0.998631 -0.0007853 0)
(1.00028 0.00275052 0)
(1.00195 -0.00273126 0)
(0.998621 -0.00370643 0)
(0.994749 -0.00219478 0)
(0.995219 0.00327018 0)
(0.997509 0.00505875 0)
(1.00451 0.0064268 0)
(1.00496 -0.000939633 0)
(1.00372 0.000286417 0)
(1.00489 -0.0065029 0)
(1.00017 -0.00603413 0)
(0.996653 -0.00506052 0)
(0.996003 -0.00755766 0)
(0.992069 -0.00323208 0)
(0.990904 -0.00153787 0)
(0.989672 0.00127334 0)
(0.989048 0.00621158 0)
(0.990523 0.00869048 0)
(1.00048 -0.000274057 0)
(0.998749 -0.000822938 0)
(1.00018 0.00267623 0)
(1.00189 -0.00266163 0)
(0.998589 -0.00353599 0)
(0.994995 -0.00208356 0)
(0.995377 0.00306629 0)
(0.997654 0.00495452 0)
(1.00428 0.00602884 0)
(1.00481 -0.000764398 0)
(1.00349 9.00527e-05 0)
(1.00469 -0.00605433 0)
(1.00024 -0.00598631 0)
(0.996622 -0.00470221 0)
(0.996099 -0.00716674 0)
(0.992471 -0.00312491 0)
(0.991191 -0.00107999 0)
(0.990251 0.00129289 0)
(0.989618 0.0060606 0)
(0.990945 0.00865203 0)
(1.0004 -0.000235562 0)
(0.998868 -0.000861121 0)
(1.00009 0.00259784 0)
(1.00184 -0.00258119 0)
(0.998568 -0.00337867 0)
(0.995234 -0.00195752 0)
(0.995541 0.00284877 0)
(0.997788 0.00485463 0)
(1.00406 0.00563222 0)
(1.00465 -0.000604996 0)
(1.00325 -7.49654e-05 0)
(1.00449 -0.00564014 0)
(1.00031 -0.00590057 0)
(0.99661 -0.00436979 0)
(0.996186 -0.00674141 0)
(0.992892 -0.00303494 0)
(0.991484 -0.00065013 0)
(0.990806 0.00135826 0)
(0.990207 0.0058474 0)
(0.991356 0.00859514 0)
(1.00034 -0.00019663 0)
(0.998981 -0.000898751 0)
(1 0.0025143 0)
(1.00178 -0.00249016 0)
(0.998567 -0.00323391 0)
(0.995462 -0.00182029 0)
(0.995715 0.00262597 0)
(0.99791 0.0047524 0)
(1.00383 0.00524258 0)
(1.00449 -0.000467866 0)
(1.00303 -0.000199453 0)
(1.00428 -0.00525297 0)
(1.00039 -0.00578443 0)
(0.996616 -0.00406006 0)
(0.996266 -0.00628624 0)
(0.99333 -0.00295337 0)
(0.991792 -0.000247582 0)
(0.991331 0.0014713 0)
(0.99081 0.00558315 0)
(0.991765 0.00850805 0)
(1.00029 -0.000157167 0)
(0.999087 -0.00093599 0)
(0.999922 0.00242497 0)
(1.0017 -0.002385 0)
(0.998588 -0.0031024 0)
(0.995677 -0.00167131 0)
(0.995901 0.00239544 0)
(0.998017 0.00464464 0)
(1.00361 0.00487084 0)
(1.00432 -0.000358231 0)
(1.00282 -0.000288396 0)
(1.00407 -0.00488496 0)
(1.00047 -0.00564531 0)
(0.996641 -0.00376617 0)
(0.996344 -0.00579815 0)
(0.993779 -0.00286975 0)
(0.992121 0.00011485 0)
(0.991818 0.00163046 0)
(0.991424 0.00527962 0)
(0.992182 0.00837363 0)
(1.00026 -0.000117983 0)
(0.999185 -0.000969869 0)
(0.999853 0.00232734 0)
(1.00161 -0.00226676 0)
(0.998629 -0.0029835 0)
(0.99588 -0.00151411 0)
(0.9961 0.00216133 0)
(0.998115 0.00452649 0)
(1.0034 0.00452051 0)
(1.00414 -0.00028134 0)
(1.00262 -0.000343778 0)
(1.00384 -0.00453777 0)
(1.00057 -0.00548297 0)
(0.996687 -0.00348445 0)
(0.996419 -0.00528081 0)
(0.994236 -0.00277836 0)
(0.992478 0.000424018 0)
(0.992266 0.0018407 0)
(0.99204 0.00496402 0)
(0.992622 0.00816235 0)
(1.00023 -7.98512e-05 0)
(0.999277 -0.000998651 0)
(0.999796 0.00221978 0)
(1.00151 -0.0021375 0)
(0.998685 -0.00287699 0)
(0.996073 -0.0013511 0)
(0.99631 0.00193538 0)
(0.998207 0.00438888 0)
(1.00319 0.00419758 0)
(1.00395 -0.000231977 0)
(1.00242 -0.000376774 0)
(1.00361 -0.00419989 0)
(1.00066 -0.00530728 0)
(0.996755 -0.00321123 0)
(0.996492 -0.00474481 0)
(0.994695 -0.002675 0)
(0.992869 0.000664185 0)
(0.992676 0.00208973 0)
(0.992644 0.00467257 0)
(0.993096 0.00784727 0)
(1.00021 -4.2218e-05 0)
(0.999363 -0.00102254 0)
(0.999751 0.00210142 0)
(1.0014 -0.00199656 0)
(0.998749 -0.00278123 0)
(0.996259 -0.00118382 0)
(0.996525 0.00172024 0)
(0.998299 0.00422955 0)
(1.00299 0.00390751 0)
(1.00377 -0.000209071 0)
(1.00224 -0.000389875 0)
(1.00338 -0.00386451 0)
(1.00076 -0.00512223 0)
(0.996845 -0.00294943 0)
(0.996559 -0.00419136 0)
(0.995147 -0.00254764 0)
(0.993297 0.000833605 0)
(0.993057 0.00235381 0)
(0.993216 0.00444658 0)
(0.99361 0.00743734 0)
(1.00019 -6.51821e-06 0)
(0.999444 -0.00103865 0)
(0.999718 0.00197315 0)
(1.00128 -0.00184623 0)
(0.998817 -0.00269188 0)
(0.99644 -0.00102261 0)
(0.996744 0.00152392 0)
(0.998395 0.00404389 0)
(1.00279 0.0036464 0)
(1.00359 -0.000210798 0)
(1.00206 -0.000389337 0)
(1.00313 -0.003529 0)
(1.00085 -0.00491979 0)
(0.99696 -0.00271119 0)
(0.996623 -0.0036254 0)
(0.995584 -0.00238252 0)
(0.99376 0.00094327 0)
(0.993421 0.00260909 0)
(0.993744 0.00431046 0)
(0.994153 0.00697382 0)
(1.00017 2.73392e-05 0)
(0.99952 -0.00104711 0)
(0.999697 0.00183685 0)
(1.00116 -0.00169043 0)
(0.998885 -0.00260266 0)
(0.996618 -0.000873659 0)
(0.996962 0.00134867 0)
(0.998495 0.00383449 0)
(1.00259 0.00340847 0)
(1.00341 -0.000221354 0)
(1.00189 -0.000386992 0)
(1.00289 -0.00318634 0)
(1.00093 -0.00469953 0)
(0.997101 -0.00249316 0)
(0.996684 -0.00307018 0)
(0.995997 -0.00218478 0)
(0.994253 0.000998457 0)
(0.993783 0.00282353 0)
(0.994218 0.00425306 0)
(0.994706 0.006509 0)
(1.00016 5.99534e-05 0)
(0.999593 -0.00104842 0)
(0.999685 0.00169402 0)
(1.00105 -0.00153538 0)
(0.998952 -0.00250901 0)
(0.996793 -0.000739418 0)
(0.997175 0.00119308 0)
(0.9986 0.00360854 0)
(1.0024 0.0031926 0)
(1.00324 -0.000237583 0)
(1.00174 -0.000380304 0)
(1.00265 -0.00283432 0)
(1.00101 -0.00445559 0)
(0.997266 -0.00229333 0)
(0.996745 -0.00252938 0)
(0.996381 -0.00195425 0)
(0.994769 0.0010102 0)
(0.994153 0.00297915 0)
(0.99464 0.00424991 0)
(0.995242 0.00610242 0)
(1.00014 8.96373e-05 0)
(0.999662 -0.00104007 0)
(0.999681 0.00154534 0)
(1.00093 -0.00138545 0)
(0.999018 -0.00241125 0)
(0.996966 -0.000618374 0)
(0.997383 0.00105475 0)
(0.998709 0.00336843 0)
(1.00221 0.00299638 0)
(1.00307 -0.000254941 0)
(1.0016 -0.00037623 0)
(1.0024 -0.00247312 0)
(1.00108 -0.00417465 0)
(0.997458 -0.00211728 0)
(0.996809 -0.00200833 0)
(0.996729 -0.00168939 0)
(0.995296 0.000997349 0)
(0.994542 0.00307994 0)
(0.99502 0.00427096 0)
(0.99574 0.00578452 0)
(1.00012 0.00011729 0)
(0.999727 -0.00102614 0)
(0.999683 0.00139392 0)
(1.00082 -0.00124326 0)
(0.999084 -0.00230928 0)
(0.997138 -0.000511216 0)
(0.997583 0.000935417 0)
(0.99882 0.00310908 0)
(1.00203 0.00281881 0)
(1.0029 -0.000267986 0)
(1.00149 -0.000374166 0)
(1.00217 -0.00211363 0)
(1.00113 -0.00386228 0)
(0.997674 -0.00196465 0)
(0.996883 -0.00152978 0)
(0.997039 -0.00139012 0)
(0.995826 0.000976171 0)
(0.994951 0.0031346 0)
(0.99537 0.00428978 0)
(0.996188 0.00554568 0)
(1.00011 0.000142687 0)
(0.99979 -0.0010097 0)
(0.999691 0.00124716 0)
(1.00072 -0.0011155 0)
(0.999149 -0.00220009 0)
(0.997308 -0.000415186 0)
(0.997774 0.00083443 0)
(0.998934 0.00284603 0)
(1.00185 0.00265187 0)
(1.00274 -0.000268321 0)
(1.00139 -0.000374074 0)
(1.00195 -0.00176299 0)
(1.00117 -0.00351976 0)
(0.997911 -0.00183513 0)
(0.996973 -0.00111041 0)
(0.997311 -0.00106609 0)
(0.99635 0.000951976 0)
(0.995383 0.0031447 0)
(0.995703 0.00429332 0)
(0.996587 0.00535414 0)
(1.00009 0.000165043 0)
(0.999849 -0.00098807 0)
(0.999704 0.00110186 0)
(1.00062 -0.000996772 0)
(0.999216 -0.00209352 0)
(0.997478 -0.000323436 0)
(0.997958 0.000750157 0)
(0.99905 0.00258303 0)
(1.00168 0.00250291 0)
(1.00257 -0.000239915 0)
(1.00131 -0.000375268 0)
(1.00174 -0.00143068 0)
(1.00118 -0.00314696 0)
(0.998161 -0.00171695 0)
(0.997086 -0.000750519 0)
(0.997549 -0.000729281 0)
(0.996858 0.000933719 0)
(0.995837 0.00311518 0)
(0.996025 0.00428861 0)
(0.996941 0.00518615 0)
(1.00008 0.000183932 0)
(0.999905 -0.00096283 0)
(0.999723 0.000961119 0)
(1.00052 -0.000884537 0)
(0.999283 -0.00199431 0)
(0.997646 -0.000237516 0)
(0.99813 0.000691987 0)
(0.99917 0.00231736 0)
(1.00152 0.0023736 0)
(1.00241 -0.000178005 0)
(1.00125 -0.000371089 0)
(1.00155 -0.00113831 0)
(1.00118 -0.00276703 0)
(0.998418 -0.00159833 0)
(0.997226 -0.000447241 0)
(0.997757 -0.000386899 0)
(0.997342 0.000932507 0)
(0.996312 0.00304399 0)
(0.996343 0.00427592 0)
(0.997256 0.00503477 0)
(1.00007 0.00019983 0)
(0.999958 -0.000935433 0)
(0.999745 0.000823864 0)
(1.00043 -0.000776033 0)
(0.999351 -0.0019038 0)
(0.997814 -0.000162671 0)
(0.998292 0.00066438 0)
(0.999292 0.00206407 0)
(1.00138 0.00225071 0)
(1.00225 -8.19324e-05 0)
(1.0012 -0.000367885 0)
(1.00138 -0.00089637 0)
(1.00116 -0.00239165 0)
(0.998678 -0.00147311 0)
(0.997396 -0.000206269 0)
(0.997939 -5.37161e-05 0)
(0.997793 0.000958589 0)
(0.996806 0.0029333 0)
(0.996667 0.00424643 0)
(0.997535 0.00490543 0)
(1.00005 0.000212356 0)
(1.00001 -0.000904182 0)
(0.999773 0.000685577 0)
(1.00034 -0.000666574 0)
(0.999419 -0.00182479 0)
(0.997984 -0.000105845 0)
(0.998442 0.000670904 0)
(0.999415 0.00183173 0)
(1.00125 0.00212619 0)
(1.00209 4.44579e-05 0)
(1.00116 -0.000348531 0)
(1.00124 -0.000698792 0)
(1.00113 -0.00202274 0)
(0.998933 -0.00132838 0)
(0.997595 -1.53779e-05 0)
(0.998108 0.000259649 0)
(0.998202 0.00102156 0)
(0.997312 0.00279658 0)
(0.997005 0.00418556 0)
(0.997783 0.00480273 0)
(1.00004 0.000219677 0)
(1.00005 -0.000866016 0)
(0.999806 0.00054842 0)
(1.00026 -0.000559852 0)
(0.999487 -0.00174737 0)
(0.998159 -7.48299e-05 0)
(0.998582 0.000708061 0)
(0.999535 0.00163022 0)
(1.00115 0.00199405 0)
(1.00193 0.000178673 0)
(1.00112 -0.000305477 0)
(1.00113 -0.000533059 0)
(1.0011 -0.00167354 0)
(0.999179 -0.00116546 0)
(0.997821 0.000145773 0)
(0.99827 0.000547848 0)
(0.998566 0.00112209 0)
(0.997817 0.00265626 0)
(0.997367 0.00408011 0)
(0.998009 0.00472044 0)
(1.00003 0.000222145 0)
(1.00009 -0.000822134 0)
(0.999844 0.000409251 0)
(1.00019 -0.000450871 0)
(0.999553 -0.00166776 0)
(0.99834 -8.04817e-05 0)
(0.998716 0.0007596 0)
(0.99965 0.00146827 0)
(1.00107 0.00186096 0)
(1.00178 0.000319809 0)
(1.00109 -0.000236666 0)
(1.00103 -0.000389759 0)
(1.00107 -0.00135378 0)
(0.999415 -0.000992118 0)
(0.998071 0.000282493 0)
(0.998433 0.00080224 0)
(0.998885 0.00124471 0)
(0.998307 0.00253087 0)
(0.997757 0.00392962 0)
(0.998227 0.0046392 0)
(1.00002 0.000221293 0)
(1.00013 -0.000770979 0)
(0.999887 0.00026777 0)
(1.00012 -0.000344213 0)
(0.999613 -0.00158426 0)
(0.998529 -0.000121424 0)
(0.998848 0.000815558 0)
(0.999758 0.00135356 0)
(1.00101 0.00173823 0)
(1.00164 0.000456996 0)
(1.00105 -0.000138345 0)
(1.00096 -0.000261675 0)
(1.00103 -0.00105749 0)
(0.999639 -0.000808637 0)
(0.99834 0.000394366 0)
(0.998603 0.00102126 0)
(0.999162 0.00138083 0)
(0.998771 0.00243288 0)
(0.998172 0.00374974 0)
(0.998454 0.00453398 0)
(1.00002 0.000211079 0)
(1.00016 -0.000705485 0)
(0.999935 0.000125969 0)
(1.00006 -0.000242559 0)
(0.999666 -0.00148389 0)
(0.998725 -0.000189057 0)
(0.998983 0.000852243 0)
(0.99986 0.00129043 0)
(1.00096 0.00162361 0)
(1.00151 0.000572812 0)
(1.00101 -2.47671e-05 0)
(1.0009 -0.000136309 0)
(1.001 -0.000782377 0)
(0.99985 -0.00061797 0)
(0.998623 0.000487095 0)
(0.998786 0.00120346 0)
(0.999404 0.0015271 0)
(0.999197 0.00236904 0)
(0.998601 0.00356554 0)
(0.998703 0.00439593 0)
(1.00001 0.000198119 0)
(1.00019 -0.000636614 0)
(0.999986 -9.80312e-06 0)
(1.00001 -0.000155386 0)
(0.999709 -0.00134205 0)
(0.998925 -0.000274784 0)
(0.999128 0.000871699 0)
(0.999957 0.00127324 0)
(1.00094 0.0015019 0)
(1.0014 0.000652645 0)
(1.00097 9.20614e-05 0)
(1.00085 -9.36994e-06 0)
(1.00098 -0.000533705 0)
(1.00004 -0.000425918 0)
(0.998915 0.000564769 0)
(0.998985 0.00133916 0)
(0.999619 0.00166479 0)
(0.999583 0.00232956 0)
(0.999031 0.00338707 0)
(0.998982 0.00422658 0)
(1 0.000179902 0)
(1.0002 -0.000559673 0)
(1.00004 -0.000137783 0)
(0.999979 -8.29749e-05 0)
(0.999741 -0.00115683 0)
(0.999124 -0.000327618 0)
(0.999286 0.000879821 0)
(1.00005 0.00126464 0)
(1.00091 0.00137648 0)
(1.00132 0.000683333 0)
(1.00093 0.000209425 0)
(1.00082 0.000123769 0)
(1.00097 -0.000299968 0)
(1.00023 -0.000234766 0)
(0.99921 0.000633464 0)
(0.999204 0.00143548 0)
(0.999819 0.00178706 0)
(0.999927 0.00231355 0)
(0.99945 0.00322466 0)
(0.999286 0.00404075 0)
(1 0.000154008 0)
(1.00022 -0.000473173 0)
(1.00009 -0.000252257 0)
(0.999963 -2.91578e-05 0)
(0.999766 -0.000933872 0)
(0.999316 -0.000338172 0)
(0.999452 0.000838126 0)
(1.00013 0.00124 0)
(1.00089 0.00126746 0)
(1.00125 0.000687234 0)
(1.00091 0.000312219 0)
(1.0008 0.000262266 0)
(1.00096 -7.86044e-05 0)
(1.0004 -5.03511e-05 0)
(0.999505 0.000699246 0)
(0.999443 0.0014999 0)
(1.00001 0.00188532 0)
(1.00023 0.00231106 0)
(0.999849 0.00308002 0)
(0.999607 0.0038503 0)
(0.999997 0.000127606 0)
(1.00022 -0.000389284 0)
(1.00015 -0.000345 0)
(0.999967 -1.48822e-08 0)
(0.999785 -0.000697901 0)
(0.999492 -0.000325182 0)
(0.999623 0.000750655 0)
(1.00021 0.00120602 0)
(1.00087 0.00119589 0)
(1.0012 0.000689791 0)
(1.00091 0.000390503 0)
(1.0008 0.000389534 0)
(1.00096 0.000132915 0)
(1.00055 0.000139841 0)
(0.999794 0.000772132 0)
(0.999699 0.00153637 0)
(1.00021 0.00195454 0)
(1.00051 0.00231293 0)
(1.00022 0.00295271 0)
(0.999937 0.00366394 0)
(0.999994 9.70056e-05 0)
(1.00022 -0.000304404 0)
(1.0002 -0.000414777 0)
(0.999991 1.07382e-06 0)
(0.999802 -0.000470164 0)
(0.999646 -0.000273694 0)
(0.999796 0.000653668 0)
(1.0003 0.00116094 0)
(1.00086 0.0011647 0)
(1.00116 0.0007029 0)
(1.00093 0.000449475 0)
(1.00082 0.000495182 0)
(1.00097 0.000328982 0)
(1.00069 0.000334576 0)
(1.00007 0.000858879 0)
(0.999963 0.00155742 0)
(1.0004 0.00199959 0)
(1.00076 0.0023204 0)
(1.00057 0.00284299 0)
(1.00027 0.00348799 0)
(0.999992 6.63962e-05 0)
(1.00021 -0.000225671 0)
(1.00024 -0.000454968 0)
(1.00003 -2.76738e-05 0)
(0.999824 -0.00026101 0)
(0.999777 -0.000182452 0)
(0.999964 0.000563411 0)
(1.0004 0.00109327 0)
(1.00085 0.00114997 0)
(1.00113 0.000732458 0)
(1.00095 0.000501305 0)
(1.00086 0.000576618 0)
(1.001 0.000496293 0)
(1.00082 0.000511603 0)
(1.00032 0.000952853 0)
(1.00023 0.00157511 0)
(1.00061 0.00201918 0)
(1.00098 0.00232572 0)
(1.00089 0.00274528 0)
(1.00059 0.00331749 0)
(0.99999 3.6809e-05 0)
(1.0002 -0.0001559 0)
(1.00027 -0.000465715 0)
(1.00009 -7.67317e-05 0)
(0.999853 -8.28679e-05 0)
(0.999885 -6.06687e-05 0)
(1.00012 0.000496019 0)
(1.00051 0.00100468 0)
(1.00086 0.00113373 0)
(1.00109 0.00078733 0)
(1.00097 0.000560765 0)
(1.00092 0.000641682 0)
(1.00104 0.000636384 0)
(1.00095 0.000673112 0)
(1.00056 0.00104794 0)
(1.00049 0.00159984 0)
(1.00082 0.00202374 0)
(1.00119 0.00232681 0)
(1.00118 0.00266888 0)
(1.00091 0.00315519 0)
(0.999989 1.13907e-05 0)
(1.00018 -9.8319e-05 0)
(1.00029 -0.00044523 0)
(1.00016 -0.000138652 0)
(0.999896 5.75459e-05 0)
(0.999972 8.47598e-05 0)
(1.00026 0.000461761 0)
(1.00062 0.000905621 0)
(1.00088 0.00110615 0)
(1.00107 0.000857029 0)
(1.001 0.000633728 0)
(1.00098 0.00070155 0)
(1.0011 0.000743582 0)
(1.00107 0.000814185 0)
(1.00078 0.00113699 0)
(1.00074 0.00162522 0)
(1.00103 0.00201885 0)
(1.0014 0.0023131 0)
(1.00143 0.00260876 0)
(1.00122 0.00300113 0)
(0.999987 -9.16425e-06 0)
(1.00017 -5.40602e-05 0)
(1.0003 -0.000394132 0)
(1.00023 -0.000194364 0)
(0.999956 0.000147 0)
(1.00004 0.00023308 0)
(1.00037 0.000466558 0)
(1.00074 0.00081243 0)
(1.00092 0.00105652 0)
(1.00106 0.00091864 0)
(1.00102 0.000723753 0)
(1.00105 0.000765469 0)
(1.00117 0.000827846 0)
(1.0012 0.000926216 0)
(1.00099 0.00121848 0)
(1.00098 0.00164821 0)
(1.00124 0.0020086 0)
(1.00159 0.00228275 0)
(1.00166 0.0025524 0)
(1.0015 0.0028659 0)
(0.999985 -2.36043e-05 0)
(1.00015 -2.40589e-05 0)
(1.0003 -0.000320498 0)
(1.00031 -0.000231182 0)
(1.00003 0.000187418 0)
(1.00011 0.000364702 0)
(1.00045 0.000504642 0)
(1.00084 0.000739967 0)
(1.00098 0.000990022 0)
(1.00106 0.000963865 0)
(1.00104 0.000820904 0)
(1.00111 0.000838382 0)
(1.00125 0.00090587 0)
(1.00132 0.00100966 0)
(1.00119 0.00128174 0)
(1.0012 0.00166674 0)
(1.00145 0.00199477 0)
(1.00179 0.0022447 0)
(1.00187 0.00249226 0)
(1.00174 0.00276033 0)
(0.999982 -3.13404e-05 0)
(1.00014 -6.14414e-06 0)
(1.00028 -0.0002328 0)
(1.00037 -0.000240894 0)
(1.00012 0.000191369 0)
(1.00017 0.000469794 0)
(1.00052 0.000566153 0)
(1.00093 0.000694167 0)
(1.00105 0.000917667 0)
(1.00108 0.000986737 0)
(1.00106 0.000911538 0)
(1.00116 0.000919763 0)
(1.00132 0.00098246 0)
(1.00144 0.00108096 0)
(1.00138 0.00132218 0)
(1.00141 0.00167406 0)
(1.00164 0.00197657 0)
(1.00197 0.00220314 0)
(1.00207 0.00242119 0)
(1.00196 0.00267125 0)
(0.99998 -3.32365e-05 0)
(1.00014 3.65277e-06 0)
(1.00027 -0.000142989 0)
(1.00043 -0.000217766 0)
(1.00022 0.000171416 0)
(1.00025 0.00053674 0)
(1.00056 0.000640083 0)
(1.001 0.000685191 0)
(1.00112 0.000853861 0)
(1.00113 0.000980955 0)
(1.00109 0.000987231 0)
(1.00121 0.00100291 0)
(1.00139 0.00105601 0)
(1.00156 0.00115011 0)
(1.00155 0.00135391 0)
(1.00162 0.00166706 0)
(1.00182 0.00195256 0)
(1.00213 0.00216218 0)
(1.00226 0.00234288 0)
(1.00215 0.00258346 0)
(0.999977 -2.9757e-05 0)
(1.00013 6.40087e-06 0)
(1.00025 -6.07451e-05 0)
(1.00047 -0.000165828 0)
(1.00032 0.000148289 0)
(1.00033 0.000563904 0)
(1.0006 0.000709513 0)
(1.00105 0.000709237 0)
(1.00119 0.000812074 0)
(1.00119 0.000958611 0)
(1.00113 0.00103911 0)
(1.00126 0.00108094 0)
(1.00146 0.00112754 0)
(1.00166 0.00120913 0)
(1.00171 0.00138428 0)
(1.00181 0.00164855 0)
(1.002 0.00191232 0)
(1.00229 0.00211864 0)
(1.00244 0.00226164 0)
(1.00232 0.00248566 0)
(0.999974 -2.28569e-05 0)
(1.00013 7.29459e-06 0)
(1.00024 1.24638e-05 0)
(1.0005 -9.65175e-05 0)
(1.00042 0.000134662 0)
(1.00042 0.000561968 0)
(1.00064 0.000766623 0)
(1.00108 0.000753359 0)
(1.00125 0.000795388 0)
(1.00126 0.000935056 0)
(1.00119 0.00106025 0)
(1.00131 0.00114357 0)
(1.00151 0.0011988 0)
(1.00175 0.00126374 0)
(1.00185 0.00141248 0)
(1.00198 0.00163502 0)
(1.00217 0.00185977 0)
(1.00243 0.0020688 0)
(1.00259 0.00218579 0)
(1.0025 0.00237681 0)
(0.99997 -1.46876e-05 0)
(1.00014 9.28997e-06 0)
(1.00022 7.22299e-05 0)
(1.00051 -1.37529e-05 0)
(1.0005 0.000141053 0)
(1.00052 0.000544997 0)
(1.00069 0.000802212 0)
(1.0011 0.000807613 0)
(1.0013 0.000806846 0)
(1.00133 0.000920498 0)
(1.00126 0.00106429 0)
(1.00137 0.00118018 0)
(1.00156 0.00125776 0)
(1.00182 0.00131789 0)
(1.00197 0.00143238 0)
(1.00213 0.00162505 0)
(1.00233 0.00180538 0)
(1.00257 0.00200301 0)
(1.00273 0.00211544 0)
(1.00266 0.00226246 0)
(0.999967 -6.05068e-06 0)
(1.00014 1.50491e-05 0)
(1.00022 0.00011407 0)
(1.00052 7.42647e-05 0)
(1.00058 0.000173691 0)
(1.00062 0.00052516 0)
(1.00074 0.000812184 0)
(1.00111 0.000860711 0)
(1.00132 0.000841994 0)
(1.0014 0.000918265 0)
(1.00134 0.00106641 0)
(1.00144 0.00119668 0)
(1.00162 0.00129353 0)
(1.00189 0.00136438 0)
(1.00207 0.00145138 0)
(1.00226 0.00161054 0)
(1.00248 0.00175907 0)
(1.0027 0.00192481 0)
(1.00284 0.00204194 0)
(1.00281 0.00215272 0)
(0.999964 1.60125e-06 0)
(1.00015 2.59526e-05 0)
(1.00022 0.000146094 0)
(1.00053 0.000155734 0)
(1.00063 0.000224702 0)
(1.00072 0.000512871 0)
(1.00081 0.00080641 0)
(1.00113 0.000901415 0)
(1.00134 0.000888606 0)
(1.00146 0.000933262 0)
(1.00141 0.00106641 0)