/*--------------------------------*- C++ -*----------------------------------*\
| =========                 |                                                 |
| \\      /  F ield         | OpenFOAM: The Open Source CFD Toolbox           |
|  \\    /   O peration     | Version:  2506                                  |
|   \\  /    A nd           | Website:  www.openfoam.com                      |
|    \\/     M anipulation  |                                                 |
\*---------------------------------------------------------------------------*/
FoamFile
{
    version     2.0;
    format      ascii;
    arch        "LSB;label=32;scalar=64";
    class       volVectorField;
    location    "6.65";
    object      U;
}
// * * * * * * * * * * * * * * * * * * * * * * * * * * * * * * * * * * * * * //

dimensions      [0 1 -1 0 0 0 0];

internalField   nonuniform List<vector> 
9600
(
(0.645868 -0.000553047 0)
(1.2652 -0.00894393 0)
(0.838558 -0.0135277 0)
(1.30512 0.0166837 0)
(0.833102 0.016034 0)
(1.12183 -0.00251994 0)
(0.809356 -0.0353279 0)
(1.14641 -0.0333723 0)
(0.883137 -0.0309231 0)
(1.22463 -0.00869787 0)
(0.889944 -0.000454882 0)
(1.19748 0.00538771 0)
(0.893603 0.00505225 0)
(1.12666 0.00631531 0)
(0.908319 -0.00334597 0)
(1.12127 -0.00535229 0)
(0.923076 -0.0107898 0)
(1.14024 -0.00918599 0)
(0.914208 -0.00791716 0)
(1.1485 -0.0118755 0)
(0.673561 -4.94425e-05 0)
(1.22933 -0.0100917 0)
(0.8528 -0.0143213 0)
(1.28767 0.0166284 0)
(0.883793 0.0173193 0)
(1.09501 -0.00182738 0)
(0.881207 -0.0359944 0)
(1.09596 -0.0341832 0)
(0.906603 -0.0325759 0)
(1.19438 -0.00863016 0)
(0.925014 -0.000402211 0)
(1.16567 0.00550244 0)
(0.94399 0.0061237 0)
(1.0865 0.00626611 0)
(0.97469 -0.00324941 0)
(1.06902 -0.00585519 0)
(1.00309 -0.0110433 0)
(1.06452 -0.00957708 0)
(1.02126 -0.00705602 0)
(1.03753 -0.0127673 0)
(0.721886 0.00045967 0)
(1.17232 -0.0110826 0)
(0.877677 -0.0150708 0)
(1.2481 0.0166835 0)
(0.953294 0.0189291 0)
(1.08039 -0.00151164 0)
(0.932069 -0.0357457 0)
(1.04504 -0.0341921 0)
(0.937448 -0.0337111 0)
(1.14286 -0.00879137 0)
(0.974705 -0.00019717 0)
(1.12019 0.00544998 0)
(1.00119 0.00733317 0)
(1.05647 0.00587691 0)
(1.02167 -0.00302485 0)
(1.04561 -0.00650123 0)
(1.03402 -0.0108576 0)
(1.04317 -0.0100053 0)
(1.04037 -0.00667705 0)
(1.032 -0.0104352 0)
(0.782963 0.00106084 0)
(1.10552 -0.0119127 0)
(0.906927 -0.0158455 0)
(1.19485 0.0162615 0)
(1.0152 0.0201352 0)
(1.07485 -0.00104434 0)
(0.972269 -0.0352012 0)
(1.00418 -0.0343258 0)
(0.960373 -0.0348318 0)
(1.08813 -0.00939761 0)
(1.01244 -4.60424e-05 0)
(1.08488 0.00511234 0)
(1.03739 0.00811817 0)
(1.05192 0.00567313 0)
(1.04408 -0.00286417 0)
(1.04589 -0.0067067 0)
(1.0411 -0.0106898 0)
(1.04112 -0.0101964 0)
(1.04005 -0.00624237 0)
(1.03425 -0.00914868 0)
(0.847303 0.00175686 0)
(1.04303 -0.0125872 0)
(0.933039 -0.016701 0)
(1.14113 0.0153003 0)
(1.05935 0.0208951 0)
(1.07739 -0.000414343 0)
(0.999224 -0.0340998 0)
(0.98103 -0.0341669 0)
(0.970439 -0.0356679 0)
(1.0452 -0.0102754 0)
(1.03034 -0.00022335 0)
(1.06709 0.00468421 0)
(1.05568 0.00844752 0)
(1.06061 0.00563891 0)
(1.05817 -0.00264473 0)
(1.05227 -0.00665255 0)
(1.04498 -0.0103341 0)
(1.03995 -0.0102083 0)
(1.03822 -0.00583319 0)
(1.03232 -0.00818467 0)
(0.905671 0.00247377 0)
(0.996629 -0.013041 0)
(0.951377 -0.0176353 0)
(1.09784 0.0140942 0)
(1.08611 0.0212321 0)
(1.08394 0.000360472 0)
(1.01645 -0.0327723 0)
(0.9734 -0.0338503 0)
(0.971487 -0.0362809 0)
(1.01791 -0.0113228 0)
(1.03473 -0.000778143 0)
(1.06166 0.0041765 0)
(1.06643 0.00840542 0)
(1.07221 0.00559957 0)
(1.07019 -0.00231055 0)
(1.0594 -0.00636088 0)
(1.0484 -0.00972548 0)
(1.0387 -0.00996982 0)
(1.035 -0.00545553 0)
(1.0287 -0.00723729 0)
(0.951619 0.00312762 0)
(0.971374 -0.0132315 0)
(0.961093 -0.0186041 0)
(1.06897 0.0127796 0)
(1.09942 0.0211628 0)
(1.08988 0.00120164 0)
(1.02725 -0.0312459 0)
(0.974919 -0.0333027 0)
(0.969468 -0.0366395 0)
(1.00246 -0.0124788 0)
(1.03373 -0.00166424 0)
(1.06162 0.0034636 0)
(1.07477 0.00808718 0)
(1.08287 0.00551707 0)
(1.08006 -0.00185485 0)
(1.06557 -0.00581698 0)
(1.05086 -0.00886761 0)
(1.03734 -0.00946252 0)
(1.03079 -0.00502187 0)
(1.02386 -0.00624828 0)
(0.982741 0.00364665 0)
(0.965058 -0.0131633 0)
(0.964187 -0.0195462 0)
(1.0515 0.0113702 0)
(1.10285 0.0207859 0)
(1.09193 0.00209931 0)
(1.03342 -0.0296683 0)
(0.980001 -0.0326105 0)
(0.967932 -0.0367898 0)
(0.993798 -0.013727 0)
(1.03138 -0.00282354 0)
(1.06225 0.00249918 0)
(1.08084 0.00757117 0)
(1.09056 0.00540833 0)
(1.08639 -0.00127763 0)
(1.06917 -0.00504126 0)
(1.05163 -0.00779651 0)
(1.03533 -0.00866846 0)
(1.02606 -0.00446763 0)
(1.01814 -0.00521463 0)
(1.00036 0.00399317 0)
(0.970937 -0.0128862 0)
(0.963976 -0.0203754 0)
(1.03922 0.00989849 0)
(1.0982 0.0202429 0)
(1.08877 0.00297488 0)
(1.036 -0.0280946 0)
(0.985736 -0.03181 0)
(0.967969 -0.0367465 0)
(0.988417 -0.0150255 0)
(1.02814 -0.00416996 0)
(1.06061 0.00132885 0)
(1.0828 0.00690273 0)
(1.09332 0.0052949 0)
(1.08778 -0.000587629 0)
(1.06894 -0.00407953 0)
(1.04999 -0.00656938 0)
(1.03228 -0.00761627 0)
(1.02103 -0.00378569 0)
(1.01214 -0.00413304 0)
(1.00807 0.00416908 0)
(0.981623 -0.012473 0)
(0.963547 -0.0210074 0)
(1.02721 0.00844016 0)
(1.08661 0.019619 0)
(1.08082 0.00372757 0)
(1.03577 -0.0266062 0)
(0.990953 -0.0309604 0)
(0.969551 -0.0365183 0)
(0.984459 -0.0163074 0)
(1.02311 -0.00559941 0)
(1.05493 2.84431e-05 0)
(1.07886 0.00612057 0)
(1.08972 0.00519402 0)
(1.0834 0.000173953 0)
(1.06434 -0.00300071 0)
(1.04556 -0.00526427 0)
(1.02802 -0.00639666 0)
(1.01587 -0.00300292 0)
(1.00639 -0.00299869 0)
(1.00996 0.00420797 0)
(0.991886 -0.0120025 0)
(0.964658 -0.0213962 0)
(1.01401 0.00709089 0)
(1.0701 0.0189338 0)
(1.06975 0.00431188 0)
(1.03358 -0.0252575 0)
(0.995172 -0.0301101 0)
(0.972363 -0.0361082 0)
(0.981183 -0.0174797 0)
(1.01577 -0.00699666 0)
(1.04479 -0.00130523 0)
(1.06856 0.00527525 0)
(1.07953 0.00509712 0)
(1.07343 0.000941695 0)
(1.05567 -0.00189455 0)
(1.03858 -0.00398164 0)
(1.02263 -0.0051278 0)
(1.01077 -0.00216419 0)
(1.00131 -0.00184464 0)
(1.00927 0.00415562 0)
(0.999385 -0.0115355 0)
(0.967533 -0.0215462 0)
(1.00106 0.00591888 0)
(1.05193 0.0182025 0)
(1.0578 0.00470512 0)
(1.03037 -0.0240817 0)
(0.998181 -0.0293087 0)
(0.975921 -0.0355435 0)
(0.978573 -0.0184543 0)
(1.0068 -0.00824669 0)
(1.03137 -0.00257355 0)
(1.05326 0.004419 0)
(1.06414 0.00497809 0)
(1.05934 0.00163809 0)
(1.04409 -0.000860849 0)
(1.02983 -0.00282481 0)
(1.01646 -0.00391735 0)
(1.00592 -0.00132594 0)
(0.99713 -0.000734915 0)
(1.0079 0.00405163 0)
(1.0039 -0.0111037 0)
(0.971445 -0.0214941 0)
(0.990464 0.00495565 0)
(1.03539 0.0174437 0)
(1.04684 0.00488364 0)
(1.0269 -0.0230802 0)
(1 -0.028586 0)
(0.979608 -0.0348621 0)
(0.976869 -0.019182 0)
(0.997725 -0.00926513 0)
(1.01706 -0.00369602 0)
(1.03577 0.00359847 0)
(1.04626 0.00481845 0)
(1.04344 0.00219366 0)
(1.03132 2.38009e-05 0)
(1.02043 -0.00186728 0)
(1.01007 -0.00284064 0)
(1.00147 -0.00055258 0)
(0.993854 0.0003023 0)
(1.00665 0.0039231 0)
(1.00621 -0.0107173 0)
(0.975513 -0.0212913 0)
(0.983319 0.00419098 0)
(1.02246 0.0166766 0)
(1.03791 0.00487083 0)
(1.0237 -0.0222256 0)
(1.00086 -0.0279534 0)
(0.982864 -0.0341054 0)
(0.976132 -0.0196637 0)
(0.990038 -0.0100217 0)
(1.00422 -0.00462181 0)
(1.01916 0.00285447 0)
(1.02885 0.00461971 0)
(1.02814 0.00256645 0)
(1.01914 0.000718536 0)
(1.01149 -0.0011283 0)
(1.00401 -0.00195096 0)
(0.997536 0.000123413 0)
(0.991348 0.00120381 0)
(1.00571 0.00378552 0)
(1.0072 -0.0103751 0)
(0.979166 -0.0209868 0)
(0.979344 0.0035921 0)
(1.01339 0.0159179 0)
(1.0311 0.00472326 0)
(1.02097 -0.0214815 0)
(1.00107 -0.0274009 0)
(0.985396 -0.0333085 0)
(0.976142 -0.0199373 0)
(0.98445 -0.0105351 0)
(0.994224 -0.00533784 0)
(1.00553 0.00220753 0)
(1.01412 0.00439228 0)
(1.01518 0.00275831 0)
(1.00882 0.00121949 0)
(1.00388 -0.000582273 0)
(0.998791 -0.00126439 0)
(0.994219 0.000682395 0)
(0.989439 0.00191756 0)
(1.00503 0.00364596 0)
(1.00753 -0.0100713 0)
(0.982184 -0.0206162 0)
(0.977538 0.00312015 0)
(1.00741 0.0151832 0)
(1.02606 0.004477 0)
(1.01874 -0.0208173 0)
(1.00093 -0.026906 0)
(0.987185 -0.0324949 0)
(0.976564 -0.0200516 0)
(0.98087 -0.0108549 0)
(0.987274 -0.00586346 0)
(0.995576 0.00165823 0)
(1.00302 0.00415071 0)
(1.00532 0.00280619 0)
(1.00093 0.00155392 0)
(0.998018 -0.000186387 0)
(0.994703 -0.00075961 0)
(0.991618 0.00112767 0)
(0.988022 0.0024693 0)
(1.00451 0.00350718 0)
(1.00757 -0.00979934 0)
(0.984549 -0.020202 0)
(0.976932 0.00273966 0)
(1.00349 0.0144798 0)
(1.02233 0.00415669 0)
(1.01693 -0.0202097 0)
(1.00063 -0.0264479 0)
(0.98837 -0.0316756 0)
(0.977141 -0.0200528 0)
(0.978796 -0.0110334 0)
(0.982854 -0.00623308 0)
(0.988959 0.00119115 0)
(0.995404 0.0039112 0)
(0.998483 0.00274564 0)
(0.995431 0.00176059 0)
(0.993919 0.000110555 0)
(0.991833 -0.00039128 0)
(0.989786 0.00147934 0)
(0.987068 0.00289815 0)
(1.00409 0.00336989 0)
(1.00749 -0.00955247 0)
(0.986321 -0.019758 0)
(0.976918 0.00242327 0)
(1.0009 0.0138073 0)
(1.01957 0.00378337 0)
(1.01548 -0.0196413 0)
(1.00032 -0.0260069 0)
(0.989121 -0.0308559 0)
(0.977745 -0.0199736 0)
(0.977697 -0.0111177 0)
(0.980242 -0.0064821 0)
(0.984879 0.000779869 0)
(0.990566 0.00367352 0)
(0.994099 0.00261442 0)
(0.991897 0.00186895 0)
(0.991307 0.000345069 0)
(0.990062 -0.000116067 0)
(0.98869 0.00174959 0)
(0.986565 0.00324313 0)
(1.00372 0.00323464 0)
(1.00739 -0.00932682 0)
(0.987584 -0.0192886 0)
(0.977217 0.00214859 0)
(0.999182 0.0131591 0)
(1.01755 0.00337435 0)
(1.01432 -0.0191005 0)
(1.00004 -0.0255702 0)
(0.989586 -0.0300401 0)
(0.978334 -0.0198368 0)
(0.977182 -0.0111422 0)
(0.978819 -0.00664638 0)
(0.982539 0.000400918 0)
(0.98769 0.00343039 0)
(0.991477 0.0024445 0)
(0.989804 0.00189736 0)
(0.989797 0.000538863 0)
(0.989151 0.000100484 0)
(0.988211 0.0019522 0)
(0.986468 0.00352983 0)
(1.00336 0.00310153 0)
(1.00729 -0.00911759 0)
(0.988436 -0.0187968 0)
(0.977711 0.00189633 0)
(0.998093 0.0125287 0)
(1.0161 0.00293938 0)
(1.0134 -0.0185808 0)
(0.99982 -0.0251265 0)
(0.989872 -0.0292289 0)
(0.978906 -0.0196583 0)
(0.977004 -0.0111302 0)
(0.978147 -0.00675652 0)
(0.981323 4.14787e-05 0)
(0.986098 0.00317827 0)
(0.990015 0.00225414 0)
(0.988683 0.00186573 0)
(0.989024 0.000709763 0)
(0.988833 0.000272579 0)
(0.988186 0.00209348 0)
(0.986686 0.00376792 0)
(1.00298 0.00297002 0)
(1.00722 -0.00891896 0)
(0.988984 -0.0182889 0)
(0.978341 0.00165564 0)
(0.997456 0.0119133 0)
(1.01504 0.00248311 0)
(1.01265 -0.0180784 0)
(0.999663 -0.0246644 0)
(0.990058 -0.0284241 0)
(0.979472 -0.0194426 0)
(0.977029 -0.0110997 0)
(0.977944 -0.00683077 0)
(0.980813 -0.00030415 0)
(0.985319 0.00291333 0)
(0.989277 0.0020528 0)
(0.988184 0.00179198 0)
(0.988715 0.000860466 0)
(0.988883 0.000418214 0)
(0.988454 0.00217941 0)
(0.987111 0.00395925 0)
(1.00259 0.00284092 0)
(1.00716 -0.00873005 0)
(0.989332 -0.0177656 0)
(0.979055 0.00141836 0)
(0.997138 0.0113085 0)
(1.01425 0.00201152 0)
(1.01199 -0.0175916 0)
(0.999544 -0.0241772 0)
(0.990203 -0.0276254 0)
(0.980046 -0.0191974 0)
(0.977192 -0.0110597 0)
(0.978039 -0.00688638 0)
(0.980743 -0.000642834 0)
(0.985043 0.00263143 0)
(0.988973 0.00184744 0)
(0.988061 0.00168678 0)
(0.988681 0.000989286 0)
(0.989131 0.000562216 0)
(0.988885 0.00222832 0)
(0.987642 0.00410241 0)
(1.00219 0.00271514 0)
(1.00709 -0.00854928 0)
(0.989573 -0.0172282 0)
(0.97981 0.00117664 0)
(0.997038 0.0107086 0)
(1.01359 0.00153716 0)
(1.01138 -0.0171187 0)
(0.999435 -0.0236624 0)
(0.990345 -0.0268315 0)
(0.980635 -0.0189321 0)
(0.977466 -0.0110112 0)
(0.978323 -0.00693564 0)
(0.980946 -0.000979237 0)
(0.98507 0.00233203 0)
(0.988916 0.00164402 0)
(0.988145 0.00155919 0)
(0.988795 0.0010956 0)
(0.98946 0.000701667 0)
(0.989387 0.00226348 0)
(0.988202 0.00421256 0)
(1.00181 0.00259233 0)
(1.00696 -0.00837354 0)
(0.989781 -0.0166806 0)
(0.980569 0.000926783 0)
(0.997074 0.0101111 0)
(1.013 0.00106442 0)
(1.01077 -0.0166616 0)
(0.999311 -0.0231205 0)
(0.990507 -0.0260441 0)
(0.981239 -0.0186509 0)
(0.977837 -0.0109546 0)
(0.978726 -0.00697918 0)
(0.981312 -0.00131451 0)
(0.985263 0.00201549 0)
(0.988982 0.00144538 0)
(0.988318 0.00142173 0)
(0.988969 0.00117972 0)
(0.989793 0.000833893 0)
(0.989899 0.00228406 0)
(0.988739 0.00430433 0)
(1.00148 0.0024743 0)
(1.00677 -0.00820503 0)
(0.990003 -0.016123 0)
(0.981307 0.000668362 0)
(0.997185 0.0095158 0)
(1.01244 0.0005985 0)
(1.01016 -0.0162206 0)
(0.999159 -0.0225551 0)
(0.9907 -0.0252625 0)
(0.981846 -0.0183567 0)
(0.978287 -0.0108915 0)
(0.97919 -0.00702041 0)
(0.981766 -0.00164106 0)
(0.985531 0.00168143 0)
(0.989094 0.00124914 0)
(0.988507 0.00127327 0)
(0.989152 0.00124481 0)
(0.990087 0.000963438 0)
(0.990392 0.00227556 0)
(0.989235 0.00436074 0)
(1.00123 0.00236219 0)
(1.00651 -0.0080428 0)
(0.990254 -0.0155591 0)
(0.982014 0.000402738 0)
(0.99732 0.00892072 0)
(1.01189 0.000145911 0)
(1.00955 -0.0157937 0)
(0.998979 -0.0219695 0)
(0.990926 -0.0244861 0)
(0.982443 -0.0180487 0)
(0.978795 -0.0108256 0)
(0.979675 -0.00706296 0)
(0.982261 -0.00195796 0)
(0.985819 0.00133902 0)
(0.989215 0.00105271 0)
(0.98868 0.00111437 0)
(0.989322 0.00129092 0)
(0.990328 0.00109091 0)
(0.990849 0.00224603 0)
(0.989696 0.00435609 0)
(1.00107 0.00225475 0)
(1.0062 -0.00788225 0)
(0.990532 -0.0149932 0)
(0.982689 0.000133136 0)
(0.997441 0.00832402 0)
(1.01135 -0.000291962 0)
(1.00894 -0.0153816 0)
(0.998778 -0.0213667 0)
(0.991182 -0.0237158 0)
(0.983024 -0.0177297 0)
(0.97934 -0.0107544 0)
(0.980156 -0.00710528 0)
(0.982774 -0.00226829 0)
(0.986101 0.000996999 0)
(0.989327 0.000860555 0)
(0.98883 0.000952839 0)
(0.989474 0.00131329 0)
(0.990522 0.00121539 0)
(0.991267 0.00221138 0)
(0.990137 0.00427593 0)
(1.00097 0.00215189 0)
(1.00588 -0.00772169 0)
(0.990825 -0.0144274 0)
(0.983339 -0.000136989 0)
(0.997528 0.00772618 0)
(1.01082 -0.000711059 0)
(1.00834 -0.0149834 0)
(0.998568 -0.0207521 0)
(0.99146 -0.0229517 0)
(0.983587 -0.0174033 0)
(0.97991 -0.0106753 0)
(0.980622 -0.00714521 0)
(0.98329 -0.00256791 0)
(0.986371 0.000653532 0)
(0.989429 0.00067371 0)
(0.988961 0.000793998 0)
(0.989613 0.00130677 0)
(0.990679 0.00133169 0)
(0.99164 0.00219695 0)
(0.990567 0.00414349 0)
(1.00092 0.0020527 0)
(1.00557 -0.00756 0)
(0.991119 -0.013865 0)
(0.983976 -0.000402599 0)
(0.997571 0.00712255 0)
(1.01029 -0.00111344 0)
(1.00776 -0.0145925 0)
(0.998362 -0.0201323 0)
(0.991752 -0.0221914 0)
(0.984139 -0.0170694 0)
(0.980494 -0.0105918 0)
(0.98107 -0.00717922 0)
(0.983803 -0.00285896 0)
(0.98663 0.000312942 0)
(0.989521 0.000486959 0)
(0.989077 0.000634585 0)
(0.98974 0.00127459 0)
(0.990816 0.00142036 0)
(0.991968 0.00220639 0)
(0.990985 0.00400083 0)
(1.00088 0.00195748 0)
(1.00529 -0.00739852 0)
(0.991411 -0.0133083 0)
(0.984608 -0.000662055 0)
(0.997575 0.00651244 0)
(1.00976 -0.00150242 0)
(1.00719 -0.014209 0)
(0.998165 -0.0195068 0)
(0.992047 -0.0214372 0)
(0.984689 -0.0167304 0)
(0.981086 -0.0105003 0)
(0.981505 -0.00720455 0)
(0.984309 -0.00314234 0)
(0.986883 -1.88045e-05 0)
(0.989601 0.000306523 0)
(0.989184 0.00047346 0)
(0.989855 0.00122869 0)
(0.990938 0.00147611 0)
(0.992253 0.00220477 0)
(0.991387 0.00385849 0)
(1.00084 0.00186507 0)
(1.00504 -0.00723352 0)
(0.991702 -0.0127596 0)
(0.985245 -0.000913562 0)
(0.997555 0.00590569 0)
(1.00922 -0.00187463 0)
(1.00664 -0.0138346 0)
(0.99798 -0.0188775 0)
(0.992337 -0.0206867 0)
(0.985246 -0.0163817 0)
(0.981683 -0.0104028 0)
(0.981935 -0.0072154 0)
(0.984807 -0.00341639 0)
(0.987137 -0.00034416 0)
(0.989671 0.000136945 0)
(0.989285 0.000314545 0)
(0.989963 0.00116638 0)
(0.991047 0.00151916 0)
(0.9925 0.00218202 0)
(0.991773 0.00370082 0)
(1.00079 0.00177279 0)
(1.00481 -0.0070603 0)
(0.991999 -0.012217 0)
(0.985889 -0.00115557 0)
(0.997528 0.00529411 0)
(1.00866 -0.00223582 0)
(1.0061 -0.0134692 0)
(0.997804 -0.0182485 0)
(0.992614 -0.0199428 0)
(0.985814 -0.0160266 0)
(0.982283 -0.010301 0)
(0.982367 -0.00721188 0)
(0.985297 -0.00367526 0)
(0.987401 -0.000664455 0)
(0.989737 -2.03415e-05 0)
(0.989382 0.000164998 0)
(0.990071 0.00107354 0)
(0.991147 0.00155493 0)
(0.99271 0.00215875 0)
(0.992141 0.00351535 0)
(1.00072 0.00168284 0)
(1.0046 -0.00687985 0)
(0.992306 -0.0116857 0)
(0.986542 -0.00138928 0)
(0.997506 0.00467763 0)
(1.00808 -0.00258616 0)
(1.00557 -0.0131142 0)
(0.997634 -0.0176214 0)
(0.992874 -0.0192069 0)
(0.986392 -0.0156676 0)
(0.982885 -0.0101927 0)
(0.982808 -0.0071922 0)
(0.98578 -0.00391962 0)
(0.987683 -0.000976596 0)
(0.989807 -0.00016402 0)
(0.989476 2.65963e-05 0)
(0.990185 0.000950082 0)
(0.991247 0.0015646 0)
(0.992888 0.00215222 0)
(0.992487 0.00331774 0)
(1.00063 0.00159524 0)
(1.00439 -0.00669276 0)
(0.992625 -0.0111675 0)
(0.987201 -0.0016145 0)
(0.997496 0.00407105 0)
(1.0075 -0.00292553 0)
(1.00505 -0.0127696 0)
(0.997471 -0.0169965 0)
(0.993113 -0.0184813 0)
(0.986976 -0.0153058 0)
(0.983489 -0.0100793 0)
(0.983258 -0.00715165 0)
(0.986258 -0.00414712 0)
(0.987989 -0.00128409 0)
(0.989889 -0.00030104 0)
(0.989568 -9.52263e-05 0)
(0.990311 0.000813482 0)
(0.991357 0.0015316 0)
(0.993042 0.00215166 0)
(0.992802 0.00313057 0)
(1.00054 0.00150896 0)
(1.00418 -0.00650155 0)
(0.992955 -0.0106553 0)
(0.987863 -0.00183565 0)
(0.997499 0.00347791 0)
(1.00691 -0.00324972 0)
(1.00453 -0.0124366 0)
(0.997312 -0.0163721 0)
(0.993329 -0.0177661 0)
(0.98756 -0.0149422 0)
(0.984094 -0.00996644 0)
(0.983714 -0.00709625 0)
(0.98673 -0.00434777 0)
(0.98832 -0.00158908 0)
(0.98999 -0.000440263 0)
(0.989661 -0.00019893 0)
(0.990447 0.000676045 0)
(0.991482 0.00146403 0)
(0.993182 0.00214113 0)
(0.99308 0.0029768 0)
(1.00045 0.00142686 0)
(1.00396 -0.0063105 0)
(0.993292 -0.0101521 0)
(0.988523 -0.00205293 0)
(0.997513 0.00290021 0)
(1.00633 -0.00355186 0)
(1.00402 -0.0121222 0)
(0.997159 -0.0157524 0)
(0.993526 -0.0170527 0)
(0.988135 -0.0145723 0)
(0.9847 -0.00985678 0)
(0.984173 -0.00702163 0)
(0.987192 -0.00451501 0)
(0.988673 -0.00188996 0)
(0.990116 -0.000584049 0)
(0.989757 -0.00028685 0)
(0.990591 0.000541941 0)
(0.991624 0.00137221 0)
(0.993321 0.00210765 0)
(0.993317 0.00286286 0)
(1.00036 0.00134845 0)
(1.00375 -0.00612017 0)
(0.993631 -0.00965679 0)
(0.989174 -0.00226602 0)
(0.997535 0.00233189 0)
(1.00575 -0.00382693 0)
(1.00354 -0.011826 0)
(0.997017 -0.0151455 0)
(0.993704 -0.0163436 0)
(0.988697 -0.0142005 0)
(0.985307 -0.00975222 0)
(0.984634 -0.006937 0)
(0.987641 -0.00464885 0)
(0.989044 -0.0021862 0)
(0.990269 -0.000734662 0)
(0.989856 -0.000360003 0)
(0.990739 0.000413311 0)
(0.991779 0.00125942 0)
(0.993465 0.0020424 0)
(0.993516 0.00277583 0)
(1.00027 0.00127321 0)
(1.00354 -0.00593239 0)
(0.99397 -0.00916352 0)
(0.989814 -0.00247565 0)
(0.997563 0.00177702 0)
(1.00519 -0.00407007 0)
(1.00307 -0.0115425 0)
(0.996887 -0.0145609 0)
(0.993866 -0.0156432 0)
(0.989239 -0.0138204 0)
(0.985914 -0.00965224 0)
(0.985096 -0.00685105 0)
(0.988073 -0.00475 0)
(0.989428 -0.00247324 0)
(0.990452 -0.000896416 0)
(0.989961 -0.000419155 0)
(0.990887 0.000293521 0)
(0.991945 0.00113107 0)
(0.99362 0.00194581 0)
(0.99369 0.00269204 0)
(1.00018 0.00120237 0)
(1.00333 -0.00574954 0)
(0.994304 -0.00867529 0)
(0.990436 -0.00267955 0)
(0.997594 0.00123432 0)
(1.00465 -0.00428543 0)
(1.00261 -0.0112671 0)
(0.996773 -0.0140009 0)
(0.994016 -0.0149529 0)
(0.989759 -0.013427 0)
(0.98652 -0.00955512 0)
(0.985558 -0.00676922 0)
(0.988486 -0.00481709 0)
(0.989819 -0.00274438 0)
(0.990665 -0.00107538 0)
(0.990073 -0.000465718 0)
(0.991029 0.000192043 0)
(0.992115 0.000991309 0)
(0.993785 0.0018208 0)
(0.993853 0.00258434 0)
(1.0001 0.0011354 0)
(1.00313 -0.00557357 0)
(0.994634 -0.0081978 0)
(0.99104 -0.00287001 0)
(0.997629 0.000696693 0)
(1.00412 -0.00446949 0)
(1.00218 -0.0109932 0)
(0.996675 -0.0134699 0)
(0.994156 -0.0142736 0)
(0.990253 -0.0130184 0)
(0.987124 -0.00945585 0)
(0.986024 -0.00669567 0)
(0.988879 -0.00485559 0)
(0.99021 -0.00299534 0)
(0.990911 -0.00127376 0)
(0.990199 -0.000510641 0)
(0.991162 0.000114562 0)
(0.992283 0.000843845 0)
(0.993959 0.0016728 0)
(0.994015 0.00244952 0)
(1.00003 0.00107257 0)
(1.00294 -0.00540391 0)
(0.994959 -0.00773526 0)
(0.991623 -0.00303694 0)
(0.997667 0.000164153 0)
(1.00362 -0.00462268 0)
(1.00177 -0.010709 0)
(0.996597 -0.0129752 0)
(0.99429 -0.013619 0)
(0.99072 -0.0125943 0)
(0.987723 -0.00934792 0)
(0.986497 -0.00662338 0)
(0.989254 -0.00486796 0)
(0.990595 -0.00322264 0)
(0.991188 -0.00149113 0)
(0.990345 -0.000563334 0)
(0.991283 6.29704e-05 0)
(0.992442 0.000697412 0)
(0.99414 0.00150191 0)
(0.99418 0.00229504 0)
(0.999954 0.00101097 0)
(1.00277 -0.0052337 0)
(0.995279 -0.0072981 0)
(0.992182 -0.00317241 0)
(0.997709 -0.000368526 0)
(1.00314 -0.00476081 0)
(1.00138 -0.0104098 0)
(0.996537 -0.0125114 0)
(0.994424 -0.0129991 0)
(0.991159 -0.0121554 0)
(0.988314 -0.00922718 0)
(0.986977 -0.00655451 0)
(0.989611 -0.00485925 0)
(0.990968 -0.0034216 0)
(0.991495 -0.00172468 0)
(0.990518 -0.000632636 0)
(0.991392 3.37149e-05 0)
(0.992583 0.000563255 0)
(0.994323 0.00130302 0)
(0.994354 0.00211754 0)
(0.999887 0.000950629 0)
(1.0026 -0.00505937 0)
(0.995595 -0.00689423 0)
(0.992717 -0.00326911 0)
(0.997753 -0.00089317 0)
(1.00268 -0.00489957 0)
(1.00101 -0.0100903 0)
(0.996494 -0.0120645 0)
(0.99456 -0.0124194 0)
(0.991574 -0.0117095 0)
(0.988894 -0.00908695 0)
(0.987468 -0.00648948 0)
(0.989956 -0.00483027 0)
(0.991325 -0.00358357 0)
(0.991829 -0.00196843 0)
(0.990727 -0.000730527 0)
(0.991495 1.47373e-05 0)
(0.992694 0.00046059 0)
(0.994501 0.00108404 0)
(0.994546 0.00190324 0)
(0.999824 0.000890735 0)
(1.00244 -0.00488172 0)
(0.995908 -0.00652727 0)
(0.993226 -0.00331352 0)
(0.997798 -0.00138972 0)
(1.00227 -0.00505317 0)
(1.00066 -0.00975385 0)
(0.996463 -0.0116214 0)
(0.994701 -0.0118764 0)
(0.991968 -0.0112645 0)
(0.98946 -0.0089169 0)
(0.987967 -0.00641939 0)
(0.990293 -0.00478418 0)
(0.991663 -0.00370806 0)
(0.992183 -0.00221156 0)
(0.990981 -0.000867899 0)
(0.991605 -1.56774e-05 0)
(0.992771 0.000396088 0)
(0.994656 0.000874719 0)
(0.994758 0.00163986 0)
(0.999767 0.000827313 0)
(1.0023 -0.00469198 0)
(0.99622 -0.00620544 0)
(0.993709 -0.00331605 0)
(0.997839 -0.00184346 0)
(1.00188 -0.00522261 0)
(1.00033 -0.00941291 0)
(0.996445 -0.0111755 0)
(0.994847 -0.0113638 0)
(0.992347 -0.0108274 0)
(0.990013 -0.0087177 0)
(0.988472 -0.00633986 0)
(0.990623 -0.0047291 0)
(0.991981 -0.00379313 0)
(0.99255 -0.00243888 0)
(0.991279 -0.00103732 0)
(0.991739 -7.16143e-05 0)
(0.992822 0.000350776 0)
(0.994768 0.000713373 0)
(0.994979 0.00134832 0)
(0.999715 0.000761827 0)
(1.00216 -0.0044878 0)
(0.996532 -0.00593014 0)
(0.994168 -0.00329927 0)
(0.997871 -0.00223798 0)
(1.00154 -0.00540279 0)
(1.00004 -0.00907567 0)
(0.996437 -0.0107179 0)
(0.994995 -0.0108813 0)
(0.992713 -0.0104079 0)
(0.990554 -0.00850141 0)
(0.988982 -0.00625141 0)
(0.990948 -0.00467029 0)
(0.992276 -0.0038405 0)
(0.99292 -0.0026451 0)
(0.991621 -0.00123536 0)
(0.991909 -0.000161751 0)
(0.992865 0.000293032 0)
(0.994834 0.000600581 0)
(0.995182 0.00107899 0)
(0.999669 0.000691509 0)
(1.00203 -0.00427058 0)
(0.996842 -0.00569289 0)
(0.994607 -0.0032731 0)
(0.997892 -0.00254552 0)
(1.00123 -0.00558323 0)
(0.999786 -0.00876547 0)
(0.996439 -0.0102427 0)
(0.995143 -0.0104114 0)
(0.99307 -0.0100038 0)
(0.991087 -0.00826878 0)
(0.989497 -0.0061474 0)
(0.991272 -0.00461013 0)
(0.99255 -0.00385446 0)
(0.993284 -0.00282091 0)
(0.992 -0.00145778 0)
(0.992119 -0.000289001 0)
(0.992919 0.000214831 0)
(0.994869 0.000503865 0)
(0.995342 0.000872917 0)
(0.999628 0.000615444 0)
(1.0019 -0.00403596 0)
(0.997148 -0.00549207 0)
(0.995031 -0.00325351 0)
(0.997901 -0.00275836 0)
(1.00095 -0.00574034 0)
(0.999576 -0.0084853 0)
(0.996457 -0.00975663 0)
(0.995288 -0.00993759 0)
(0.993416 -0.00961957 0)
(0.991613 -0.00803518 0)
(0.990016 -0.00604467 0)
(0.991598 -0.00455293 0)
(0.992803 -0.0038415 0)
(0.99363 -0.00295798 0)
(0.992407 -0.00169231 0)
(0.992377 -0.00045332 0)
(0.992994 0.000126282 0)
(0.994893 0.000393548 0)
(0.995455 0.000717088 0)
(0.999593 0.000534886 0)
(1.00178 -0.00379155 0)
(0.997447 -0.00531516 0)
(0.995447 -0.00325407 0)
(0.997897 -0.00288914 0)
(1.0007 -0.00585487 0)
(0.999413 -0.00824544 0)
(0.996497 -0.00928398 0)
(0.995427 -0.00944543 0)
(0.993748 -0.00923843 0)
(0.992128 -0.00781183 0)
(0.99054 -0.00595273 0)
(0.991932 -0.00449753 0)
(0.993044 -0.00381304 0)
(0.99395 -0.00305064 0)
(0.992827 -0.00191332 0)
(0.992685 -0.000653867 0)
(0.993094 2.40695e-05 0)
(0.994917 0.000275915 0)
(0.995542 0.000573961 0)
(0.999563 0.000451159 0)
(1.00166 -0.00354379 0)
(0.997734 -0.00514835 0)
(0.995858 -0.00328413 0)
(0.997884 -0.00296026 0)
(1.00046 -0.00590451 0)
(0.999293 -0.00804624 0)
(0.996567 -0.00884363 0)
(0.995565 -0.00894188 0)
(0.99406 -0.0088462 0)
(0.992627 -0.00759689 0)
(0.991067 -0.00587063 0)
(0.992278 -0.00444924 0)
(0.993279 -0.00377486 0)
(0.994246 -0.00310247 0)
(0.993246 -0.0021018 0)
(0.993038 -0.000881634 0)
(0.993234 -0.000102349 0)
(0.994946 0.00016876 0)
(0.995618 0.000418704 0)
(0.999538 0.000363687 0)
(1.00154 -0.0032907 0)
(0.998005 -0.00498318 0)
(0.996266 -0.00334866 0)
(0.99787 -0.00299467 0)
(1.00023 -0.005881 0)
(0.999209 -0.00786572 0)
(0.996671 -0.00844648 0)
(0.995704 -0.00844106 0)
(0.994349 -0.00843127 0)
(0.993106 -0.00737512 0)
(0.991596 -0.00579853 0)
(0.99264 -0.00441428 0)
(0.993518 -0.00372991 0)
(0.994522 -0.00312271 0)
(0.993649 -0.00224691 0)
(0.993424 -0.00110608 0)
(0.993424 -0.000261214 0)
(0.994979 7.03128e-05 0)
(0.995688 0.000260139 0)
(0.999517 0.000275389 0)
(1.00142 -0.00304354 0)
(0.998252 -0.00480696 0)
(0.996671 -0.00345378 0)
(0.997862 -0.0030053 0)
(1 -0.0057793 0)
(0.999151 -0.00767339 0)
(0.996814 -0.00811539 0)
(0.995854 -0.00795843 0)
(0.994612 -0.00798921 0)
(0.993553 -0.00712512 0)
(0.992118 -0.00572738 0)
(0.993018 -0.00439457 0)
(0.993766 -0.00368884 0)
(0.994783 -0.00312395 0)
(0.994036 -0.00235417 0)
(0.993826 -0.00130874 0)
(0.993664 -0.000449294 0)
(0.995031 -3.61289e-05 0)
(0.995747 0.00012349 0)
(0.9995 0.000191345 0)
(1.0013 -0.00281133 0)
(0.998468 -0.00461426 0)
(0.997072 -0.00359378 0)
(0.997871 -0.00301255 0)
(0.99978 -0.00560442 0)
(0.999101 -0.00744237 0)
(0.996989 -0.00784116 0)
(0.996026 -0.00752328 0)
(0.994856 -0.00753476 0)
(0.993963 -0.00684038 0)
(0.992623 -0.0056393 0)
(0.993409 -0.00438726 0)
(0.994028 -0.0036587 0)
(0.995035 -0.00310849 0)
(0.994402 -0.00243307 0)
(0.994231 -0.001487 0)
(0.993947 -0.000644757 0)
(0.995118 -0.000164492 0)
(0.995795 3.21103e-06 0)
(0.999486 0.000111645 0)
(1.00118 -0.00260031 0)
(0.998649 -0.00439544 0)
(0.997462 -0.00373968 0)
(0.997907 -0.0030399 0)
(0.999564 -0.00538075 0)
(0.999047 -0.00716939 0)
(0.997186 -0.00760257 0)
(0.996229 -0.00715221 0)
(0.99509 -0.00708262 0)
(0.994332 -0.00650999 0)
(0.993099 -0.00551751 0)
(0.993804 -0.00438181 0)
(0.994309 -0.00364461 0)
(0.995283 -0.00308511 0)
(0.994746 -0.00248293 0)
(0.99463 -0.00163473 0)
(0.99426 -0.000830621 0)
(0.995241 -0.000306584 0)
(0.995842 -0.000108555 0)
(0.999473 4.25112e-05 0)
(1.00108 -0.00243061 0)
(0.998795 -0.00415213 0)
(0.997835 -0.00386971 0)
(0.997973 -0.00309229 0)
(0.999363 -0.00512424 0)
(0.99898 -0.00683354 0)
(0.997389 -0.00737302 0)
(0.996465 -0.00686395 0)
(0.995332 -0.00667068 0)
(0.994663 -0.00614806 0)
(0.993532 -0.00535035 0)
(0.994193 -0.00435946 0)
(0.994608 -0.00364722 0)
(0.995537 -0.0030684 0)
(0.995071 -0.00250936 0)
(0.995015 -0.00175193 0)
(0.994594 -0.00100519 0)
(0.995404 -0.000457899 0)
(0.995901 -0.000221889 0)
(0.999462 -1.46138e-05 0)
(1.00098 -0.00229397 0)
(0.99891 -0.00389965 0)
(0.998184 -0.00397928 0)
(0.998074 -0.00317373 0)
(0.999191 -0.0048671 0)
(0.998895 -0.00643498 0)
(0.997573 -0.00710749 0)
(0.996726 -0.00663803 0)
(0.995596 -0.00632597 0)
(0.99497 -0.0057879 0)
(0.993919 -0.0051351 0)
(0.994556 -0.00430483 0)
(0.994914 -0.00365486 0)
(0.995802 -0.00306484 0)
(0.995386 -0.00252499 0)
(0.995381 -0.00184011 0)
(0.994935 -0.00115946 0)
(0.995601 -0.000612516 0)
(0.995978 -0.000338912 0)
(0.999452 -5.8496e-05 0)
(1.0009 -0.0021883 0)
(0.998995 -0.00364219 0)
(0.998503 -0.0040379 0)
(0.99821 -0.00326683 0)
(0.999062 -0.00462569 0)
(0.998802 -0.00601597 0)
(0.997726 -0.00679946 0)
(0.996994 -0.00643445 0)
(0.995888 -0.00606672 0)
(0.995271 -0.0054582 0)
(0.994263 -0.00488556 0)
(0.994884 -0.00420193 0)
(0.995217 -0.0036432 0)
(0.996077 -0.00307293 0)
(0.995696 -0.00254535 0)
(0.99573 -0.00191275 0)
(0.995271 -0.0012896 0)
(0.995824 -0.000762301 0)
(0.996076 -0.00045712 0)
(0.999441 -8.64779e-05 0)
(1.00083 -0.00209727 0)
(0.999061 -0.00336267 0)
(0.998786 -0.00402765 0)
(0.998373 -0.00337788 0)
(0.998978 -0.00442672 0)
(0.998704 -0.00560678 0)
(0.997842 -0.00645087 0)
(0.997247 -0.00621523 0)
(0.996204 -0.0058767 0)
(0.995588 -0.00519309 0)
(0.994579 -0.00462758 0)
(0.995169 -0.00405319 0)
(0.995496 -0.00360179 0)
(0.996351 -0.00308053 0)
(0.996005 -0.00257055 0)
(0.996067 -0.00197496 0)
(0.995601 -0.00139883 0)
(0.996062 -0.000898594 0)
(0.996198 -0.000580352 0)
(0.999433 -0.000102083 0)
(1.00077 -0.00200885 0)
(0.99911 -0.00307148 0)
(0.999021 -0.00394255 0)
(0.998549 -0.00347877 0)
(0.998945 -0.0042987 0)
(0.998619 -0.00522595 0)
(0.997925 -0.0060819 0)
(0.997466 -0.00596737 0)
(0.996519 -0.00571151 0)
(0.995924 -0.0050041 0)
(0.994886 -0.0043931 0)
(0.995413 -0.00387095 0)
(0.995739 -0.00352897 0)
(0.99661 -0.00307123 0)
(0.996309 -0.00259507 0)
(0.996395 -0.00203147 0)
(0.995921 -0.00149568 0)
(0.996303 -0.00102041 0)
(0.996336 -0.000700389 0)
(0.999425 -0.000107469 0)
(1.00073 -0.00192766 0)
(0.999152 -0.00280337 0)
(0.99921 -0.0037964 0)
(0.998717 -0.00354375 0)
(0.998955 -0.00423176 0)
(0.998554 -0.00488574 0)
(0.997979 -0.00571291 0)
(0.997646 -0.00568183 0)
(0.996817 -0.00552212 0)
(0.996278 -0.00485954 0)
(0.995207 -0.00420804 0)
(0.995627 -0.00366969 0)
(0.995939 -0.00341464 0)
(0.996844 -0.00304096 0)
(0.996599 -0.0026096 0)
(0.996711 -0.0020845 0)
(0.996232 -0.00158111 0)
(0.996549 -0.00113297 0)
(0.996485 -0.000806639 0)
(0.99942 -9.9866e-05 0)
(1.00069 -0.00185035 0)
(0.99919 -0.00257991 0)
(0.999355 -0.00361971 0)
(0.998867 -0.00354926 0)
(0.99901 -0.00417787 0)
(0.998526 -0.00457915 0)
(0.998021 -0.00533879 0)
(0.997792 -0.00536899 0)