/*--------------------------------*- C++ -*----------------------------------*\
| =========                 |                                                 |
| \\      /  F ield         | OpenFOAM: The Open Source CFD Toolbox           |
|  \\    /   O peration     | Version:  2506                                  |
|   \\  /    A nd           | Website:  www.openfoam.com                      |
|    \\/     M anipulation  |                                                 |
\*---------------------------------------------------------------------------*/
FoamFile
{
    version     2.0;
    format      ascii;
    arch        "LSB;label=32;scalar=64";
    class       volScalarField;
    location    "1.75";
    object      p;
}
// * * * * * * * * * * * * * * * * * * * * * * * * * * * * * * * * * * * * * //

dimensions      [0 2 -2 0 0 0 0];

internalField   nonuniform List<scalar> 
9600
(
-7.43189e-11
0.000515013
0.00114555
0.000694031
-0.000599906
0.00110739
0.00103425
-3.69285e-05
0.000668797
0.000743751
0.000713464
0.000493407
0.00113455
0.00103549
0.000531469
0.00127041
0.000455273
0.00148868
0.00214221
0.0037519
9.01601e-06
0.00051301
0.00114332
0.00068918
-0.00058201
0.00109176
0.00102514
-2.98534e-05
0.000666121
0.000740439
0.000728572
0.000484275
0.00114549
0.00101538
0.000542642
0.00120989
0.000475368
0.00146174
0.00215577
0.00354053
1.73291e-05
0.000510482
0.00113922
0.00068406
-0.000565115
0.00107554
0.00101932
-1.90598e-05
0.000659198
0.000738162
0.000739843
0.000468453
0.00115562
0.000986805
0.000557535
0.00114868
0.000509898
0.00142148
0.00215686
0.00326779
2.58612e-05
0.000507627
0.00113398
0.00067832
-0.000549045
0.0010606
0.00101474
-9.12357e-06
0.000648435
0.000735656
0.000747355
0.000446251
0.00116396
0.000953111
0.000573505
0.00108619
0.000541798
0.00138329
0.00213426
0.00300848
3.49163e-05
0.000504191
0.00112742
0.000672097
-0.000528153
0.00104516
0.00100932
3.96894e-07
0.000634789
0.000733086
0.000753312
0.000419283
0.00117355
0.000915176
0.000591461
0.00102143
0.000571073
0.00134831
0.00208671
0.00277423
4.44986e-05
0.000500004
0.00111985
0.000666044
-0.000504128
0.00102853
0.0010031
1.04091e-05
0.000619953
0.000730966
0.000758389
0.000390009
0.00118443
0.000875192
0.000610878
0.000956036
0.00059949
0.00131179
0.00201881
0.00256543
5.4559e-05
0.000495113
0.00111186
0.000660439
-0.000477512
0.00101068
0.000996541
2.11319e-05
0.000605131
0.000729112
0.000762779
0.000360029
0.00119594
0.00083481
0.00062962
0.000892966
0.000622435
0.00127398
0.00193525
0.0023723
6.50466e-05
0.00048965
0.00110383
0.000655238
-0.000448866
0.000991846
0.000989827
3.25493e-05
0.00059076
0.000727232
0.000766663
0.000330051
0.00120761
0.000794553
0.000646727
0.000833658
0.000635756
0.00123922
0.00183561
0.00218562
7.59255e-05
0.000483742
0.00109595
0.0006503
-0.000418645
0.000972198
0.00098297
4.45368e-05
0.000576926
0.000725165
0.000770131
0.000300357
0.00121869
0.000755131
0.000661638
0.000778761
0.000638434
0.00120968
0.00171764
0.00200058
8.71777e-05
0.000477489
0.0010882
0.000645474
-0.000387175
0.000951857
0.000975889
5.69321e-05
0.000563544
0.000722809
0.000773209
0.000271002
0.00122841
0.000717625
0.000673067
0.000729533
0.00063017
0.00118492
0.00158239
0.00181447
9.87997e-05
0.000470952
0.00108055
0.000640628
-0.000354634
0.000930937
0.000968465
6.96027e-05
0.00055047
0.000720121
0.000775893
0.000241957
0.00123621
0.000683032
0.000679339
0.000687427
0.000610028
0.00116362
0.00143389
0.0016239
0.000110797
0.000464164
0.00107294
0.000635684
-0.000321109
0.000909528
0.000960582
8.2463e-05
0.000537563
0.000717132
0.000778123
0.000213264
0.00124161
0.000652257
0.000678787
0.000653411
0.000577147
0.00114372
0.00127747
0.00142513
0.000123178
0.000457136
0.00106533
0.000630608
-0.000286656
0.000887709
0.000952139
9.54803e-05
0.000524662
0.00071393
0.000779767
0.000185102
0.00124402
0.00062607
0.000669969
0.00062764
0.000531518
0.00112217
0.00111898
0.00121568
0.000135956
0.000449865
0.00105771
0.000625389
-0.000251331
0.000865568
0.000943046
0.000108652
0.000511594
0.000710671
0.000780632
0.000157738
0.00124277
0.000605095
0.000651834
0.000609362
0.000474349
0.00109495
0.000964059
0.000995132
0.000149144
0.000442346
0.00105005
0.000620026
-0.0002152
0.000843216
0.000933204
0.000122
0.000498195
0.000707534
0.000780456
0.000131508
0.00123723
0.000589798
0.000623704
0.000597075
0.00040808
0.00105741
0.00081742
0.000765031
0.000162758
0.000434566
0.00104235
0.000614526
-0.000178346
0.000820784
0.000922491
0.000135587
0.000484286
0.000704745
0.000778909
0.000106766
0.00122689
0.000580338
0.000585434
0.000588666
0.00033591
0.00100516
0.000682213
0.000528526
0.000176815
0.000426513
0.00103459
0.000608919
-0.000140879
0.00079844
0.000910756
0.000149525
0.000469625
0.000702557
0.000775756
8.37404e-05
0.00121123
0.000576613
0.000537634
0.000581266
0.000261013
0.000935169
0.000559654
0.000289961
0.000191336
0.000418172
0.00102674
0.00060325
-0.000102932
0.000776392
0.000897814
0.000163968
0.000453967
0.000701128
0.00077089
6.25126e-05
0.00118984
0.000578172
0.00048167
0.000571705
0.000186044
0.000846111
0.00044921
5.4253e-05
0.000206351
0.000409528
0.00101877
0.000597591
-6.46621e-05
0.000754861
0.000883463
0.00017911
0.000437091
0.000700523
0.000764279
4.30264e-05
0.00116256
0.000583926
0.000419544
0.000557342
0.000113008
0.000738553
0.000348936
-0.000173459
0.00022189
0.000400566
0.00101062
0.000592043
-2.62546e-05
0.000734108
0.000867475
0.000195155
0.0004188
0.000700729
0.000756018
2.49656e-05
0.00112959
0.000592423
0.000353208
0.000536082
4.31457e-05
0.000614222
0.000256169
-0.00038791
0.000237984
0.000391273
0.00100224
0.000586733
1.20701e-05
0.000714443
0.000849577
0.000212277
0.000398974
0.000701528
0.000746468
7.69902e-06
0.00109165
0.000602417
0.000283832
0.000506164
-2.2931e-05
0.000474988
0.000167738
-0.000583926
0.000254669
0.000381645
0.00099354
0.000581815
5.00678e-05
0.000696204
0.000829532
0.000230538
0.000377619
0.000702589
0.000736313
-9.7514e-06
0.0010495
0.000613092
0.00021222
0.000466595
-8.4615e-05
0.000322611
7.99994e-05
-0.000756666
0.000271986
0.000371679
0.000984414
0.000577482
8.74505e-05
0.000679744
0.000807139
0.000249926
0.000354857
0.000703387
0.000726506
-2.83879e-05
0.00100332
0.00062379
0.000138836
0.000416837
-0.000141082
0.000159218
-1.11069e-05
-0.000902256
0.000289968
0.000361407
0.000974712
0.000573959
0.000123861
0.000665409
0.000782242
0.000270392
0.000330954
0.000702947
0.000718174
-4.87909e-05
0.000953127
0.00063343
6.36754e-05
0.000355931
-0.000191466
-1.19351e-05
-0.000109932
-0.00101881
0.000308658
0.000350852
0.000964246
0.000571505
0.000158939
0.000653484
0.000754832
0.000291702
0.000306551
0.000700112
0.000712335
-7.10742e-05
0.000898794
0.000642329
-1.32343e-05
0.000282309
-0.000235056
-0.000185967
-0.000220805
-0.0011072
0.000328081
0.000340098
0.000952777
0.000570415
0.000192292
0.000644176
0.000725006
0.000313427
0.000282537
0.000693685
0.000709587
-9.49658e-05
0.000839524
0.00065091
-9.09892e-05
0.000194338
-0.000271817
-0.000356866
-0.000347648
-0.00117114
0.000348254
0.000329253
0.000940019
0.000570994
0.000223726
0.00063764
0.000692933
0.000334965
0.000259961
0.000682379
0.000710125
-0.000119551
0.000773683
0.000658774
-0.000167734
9.07887e-05
-0.000303128
-0.000518042
-0.000493204
-0.00121727
0.000369189
0.000318451
0.000925617
0.000573529
0.000253051
0.000633897
0.000659074
0.000355406
0.000240134
0.000665267
0.000713611
-0.000143328
0.000699072
0.000664428
-0.000241179
-2.87993e-05
-0.000332177
-0.000662276
-0.000657544
-0.00125592
0.000390876
0.000307901
0.00090916
0.000578261
0.000280127
0.000632798
0.000624195
0.00037365
0.000224238
0.00064199
0.000718747
-0.000164608
0.00061436
0.000665468
-0.000308606
-0.000163479
-0.000363625
-0.000782914
-0.000836399
-0.00130073
0.000413305
0.000297838
0.00089024
0.000585334
0.000305077
0.00063408
0.000589222
0.000388516
0.000212977
0.000612678
0.000723583
-0.000181838
0.000519884
0.000659098
-0.000367445
-0.0003106
-0.00040295
-0.000875994
-0.00102055
-0.00136589
0.000436406
0.00028858
0.00086849
0.00059473
0.000328199
0.00063728
0.000555367
0.00039886
0.000206437
0.000578016
0.00072605
-0.000193886
0.000416292
0.000642221
-0.000415708
-0.000466146
-0.000455513
-0.000941614
-0.00119733
-0.00146102
0.000460051
0.000280547
0.000843611
0.000606313
0.000349821
0.000641657
0.000523982
0.000403984
0.000204172
0.000539099
0.000723933
-0.000200457
0.00030414
0.000612114
-0.00045231
-0.000624997
-0.000525406
-0.000984601
-0.00135429
-0.00158595
0.00048411
0.00027411
0.000815382
0.000619822
0.000370435
0.000646357
0.000496224
0.000403692
0.00020493
0.000497108
0.000715007
-0.000202158
0.000185764
0.00056694
-0.000477324
-0.000781455
-0.000614589
-0.00101291
-0.00148237
-0.00173017
0.000508401
0.000269692
0.000783767
0.000634754
0.00039067
0.000650508
0.000472977
0.000398223
0.000207236
0.000453112
0.000697494
-0.000200181
6.50533e-05
0.000505925
-0.000491785
-0.000930135
-0.000723091
-0.0010353
-0.00157811
-0.00187733
0.000532693
0.00026772
0.000748943
0.000650346
0.000411232
0.000653337
0.000454721
0.000388237
0.00020958
0.000407878
0.000670178
-0.000196086
-5.34716e-05
0.000429625
-0.000497328
-0.00106636
-0.000849737
-0.00105998
-0.00164415
-0.00201263
0.000556775
0.000268575
0.000711249
0.000665682
0.000432602
0.000654352
0.000441675
0.00037466
0.000210623
0.000361688
0.000632187
-0.00019159
-0.000166113
0.00033961
-0.000496188
-0.00118623
-0.000992367
-0.00109303
-0.0016857
-0.00212664
0.00058041
0.000272627
0.000671254
0.000679861
0.000455012
0.000653068
0.000433715
0.000358575
0.000209495
0.000314832
0.000583723
-0.000188245
-0.000272437
0.00023747
-0.000491623
-0.00128664
-0.00114788
-0.00113925
-0.00170752
-0.0022159
0.000603378
0.000280177
0.000629678
0.00069198
0.000478585
0.000648999
0.000430176
0.000341167
0.000199563
0.000267326
0.000528205
-0.000186458
-0.000371278
0.000124223
-0.000488018
-0.00136467
-0.00131135
-0.00120401
-0.00171452
-0.00227937
0.000625446
0.000291493
0.000587327
0.0007012
0.00050332
0.000641644
0.00042984
0.000323692
0.000182266
0.000218935
0.000469748
-0.000187763
-0.000462521
3.08531e-08
-0.000490581
-0.00141812
-0.00147505
-0.00129232
-0.00171321
-0.00231544
0.00064637
0.000306792
0.00054511
0.000706792
0.000529287
0.000630357
0.000430687
0.000307572
0.000158179
0.000168857
0.000410243
-0.000187928
-0.000544767
-0.000134153
-0.000504699
-0.00144753
-0.00162963
-0.00140601
-0.00171321
-0.00232342
0.000665905
0.000326239
0.000504018
0.00070795
0.0005568
0.000614734
0.000429798
0.000294217
0.000129176
0.000115429
0.000349561
-0.000186931
-0.000617049
-0.000275927
-0.000534828
-0.00145667
-0.00176542
-0.0015411
-0.00172618
-0.00230727
0.000683792
0.000349926
0.000465215
0.00070388
0.000586022
0.000594931
0.000423499
0.000283981
9.81804e-05
5.81813e-05
0.000287438
-0.000184631
-0.000677526
-0.000421771
-0.000584148
-0.00145217
-0.00187514
-0.00168815
-0.00176121
-0.00227644
0.000699839
0.000377805
0.000429896
0.000693861
0.000616852
0.000572035
0.000408052
0.000275556
6.84181e-05
-1.88064e-06
0.000222128
-0.000182276
-0.0007235
-0.000567124
-0.000654537
-0.00144213
-0.00195637
-0.00183594
-0.00182046
-0.00224306
0.000713811
0.000409702
0.000399303
0.000677349
0.000648726
0.000548165
0.00038019
0.000265521
4.36845e-05
-6.26487e-05
0.000151568
-0.000181634
-0.000752971
-0.000706138
-0.000745355
-0.00143517
-0.00201133
-0.00197513
-0.00189983
-0.00221781
0.000725549
0.00044522
0.000374008
0.000653546
0.000681257
0.000526831
0.000338023
0.00024895
2.7499e-05
-0.000120098
7.39349e-05
-0.000186361
-0.000767216
-0.000831972
-0.000852402
-0.00143888
-0.00204414
-0.00209905
-0.00199321
-0.00220701
0.000735065
0.000483497
0.000356709
0.000621466
0.000713142
0.00051193
0.000281979
0.0002228
2.03748e-05
-0.000170148
-1.04092e-05
-0.000202122
-0.000770251
-0.000938688
-0.00096901
-0.00145808
-0.00206001
-0.00220289
-0.00209498
-0.00221271
0.000742342
0.000523411
0.000348131
0.000580845
0.000735705
0.00050567
0.000221116
0.000185458
1.83842e-05
-0.000209363
-9.90994e-05
-0.000233541
-0.000767052
-0.00102372
-0.00108725
-0.00149357
-0.00206593
-0.00228406
-0.00219949
-0.00223463
0.000743855
0.000563686
0.000348665
0.000532969
0.000744576
0.000509418
0.000164417
0.000135202
1.44757e-05
-0.000236345
-0.000187854
-0.000281218
-0.000764768
-0.00108838
-0.00119888
-0.00154258
-0.00206938
-0.00234292
-0.00230014
-0.00227188
0.00074796
0.000602849
0.000358571
0.000480373
0.000737209
0.000522224
0.000117675
7.28351e-05
1.68319e-06
-0.000252677
-0.000268604
-0.000341825
-0.00077075
-0.00113615
-0.00129831
-0.00160074
-0.00207576
-0.00238221
-0.00238963
-0.00232221
0.000751164
0.000639406
0.000377672
0.000426514
0.00071167
0.00053912
8.53854e-05
1.99591e-06
-2.53329e-05
-0.000261501
-0.000335643
-0.000410186
-0.000788043
-0.00117315
-0.00138435
-0.00166363
-0.00208761
-0.00240619
-0.00246199
-0.00238019
0.000754077
0.000672165
0.000406823
0.000375286
0.000667246
0.000553336
7.03799e-05
-7.01591e-05
-6.88398e-05
-0.000269468
-0.000388198
-0.00047858
-0.000814604
-0.00120597
-0.00145841
-0.00172734
-0.00210525
-0.00241996
-0.00251475
-0.00243691
0.000757327
0.000700209
0.00043994
0.000330411
0.000604428
0.000557544
7.25183e-05
-0.000134492
-0.000127354
-0.000285013
-0.000428234
-0.000540699
-0.000847911
-0.00123739
-0.00152239
-0.00178888
-0.00212783
-0.00242855
-0.00255003
-0.00248422
0.000761455
0.000722892
0.00047591
0.000295107
0.000526937
0.00054591
8.84331e-05
-0.000184215
-0.000197185
-0.000314416
-0.000459856
-0.000592868
-0.000883233
-0.0012669
-0.00157738
-0.00184698
-0.00215458
-0.00243551
-0.00257229
-0.0025192
0.0007669
0.00073975
0.0005114
0.000272025
0.000441193
0.000514225
0.000111032
-0.000215416
-0.000270089
-0.000358611
-0.000491806
-0.000635908
-0.00091495
-0.00129365
-0.00162419
-0.00190113
-0.00218482
-0.0024421
-0.00258425
-0.00254297
0.000773801
0.000750943
0.000542735
0.000261831
0.000355429
0.00046191
0.00013022
-0.000228289
-0.00033618
-0.000414966
-0.000531183
-0.000673329
-0.000940477
-0.00131484
-0.00166245
-0.00194996
-0.00221787
-0.00245011
-0.00258757
-0.00255696
0.00078192
0.000757089
0.000567616
0.000264731
0.000276862
0.000390827
0.00013712
-0.000225439
-0.000388927
-0.0004784
-0.000579726
-0.000711338
-0.000961909
-0.00132762
-0.00168997
-0.00199059
-0.00225163
-0.00246239
-0.00258537
-0.00256077
0.000790774
0.000759061
0.000584689
0.00027466
0.000209789
0.000305525
0.000126288
-0.000213568
-0.00042522
-0.000540674
-0.000635963
-0.000754322
-0.000982649
-0.00133387
-0.00170498
-0.00201983
-0.00228142
-0.00247937
-0.00258277
-0.00255461
0.000799873
0.000758181
0.000593151
0.00028847
0.000157412
0.000214234
9.54552e-05
-0.000202228
-0.000445553
-0.00059398
-0.000696727
-0.000803546
-0.00100605
-0.00133648
-0.00170899
-0.00203605
-0.00230204
-0.00249673
-0.00258375
-0.0025417
0.000807927
0.000755621
0.000593384
0.000301381
0.000119668
0.000125891
4.6133e-05
-0.000199922
-0.000452862
-0.000633864
-0.000755325
-0.000857962
-0.00103481
-0.00133786
-0.00170464
-0.00204011
-0.00231085
-0.00250771
-0.00258736
-0.00252682
0.000814215
0.000751991
0.000586842
0.00030961
9.44559e-05
4.58011e-05
-1.75667e-05
-0.000211437
-0.000453852
-0.000659699
-0.000804962
-0.000914065
-0.00107077
-0.00134123
-0.00169358
-0.00203393
-0.00230833
-0.00250788
-0.00258844
-0.0025126
0.000818069
0.000747473
0.000575337
0.000311091
7.71932e-05
-2.30783e-05
-8.89763e-05
-0.000237806
-0.000456064
-0.000673492
-0.000841898
-0.000964937
-0.00111079
-0.00135061
-0.00167873
-0.00201797
-0.00229592
-0.00249646
-0.00258176
-0.0024979
0.00081886
0.000741898
0.000560715
0.000304926
6.27894e-05
-7.98927e-05
-0.000160901
-0.000277553
-0.000464902
-0.000679193
-0.000865989
-0.00100566
-0.00114905
-0.00136575
-0.001665
-0.00199362
-0.00227398
-0.00247441
-0.00256437
-0.00247944
0.000816201
0.000734709
0.000544276
0.000291719
4.69273e-05
-0.000126317
-0.000227898
-0.000327223
-0.000483013
-0.00068234
-0.000878559
-0.00103465
-0.00118015
-0.00138045
-0.00165449
-0.00196464
-0.00224291
-0.00244265
-0.0025349
-0.00245341
0.000809843
0.000725286
0.000526585
0.000272528
2.72144e-05
-0.00016566
-0.000287791
-0.000381258
-0.000510046
-0.000687797
-0.000882029
-0.00105079
-0.00120212
-0.00138994
-0.00164294
-0.00193339
-0.00220386
-0.00240182
-0.00249329
-0.00241645
0.000799623
0.000712827
0.000507651
0.000248903
2.64914e-06
-0.000201804
-0.000341304
-0.000435079
-0.000543559
-0.000697811
-0.000880992
-0.00105434
-0.00121257
-0.00139229
-0.00162543
-0.00189733
-0.00215695
-0.00235168
-0.00244063
-0.00236697
0.000785585
0.000696667
0.000486732
0.000222223
-2.68883e-05
-0.000237792
-0.000389806
-0.000486795
-0.000580998
-0.000712223
-0.0008789
-0.00104787
-0.0012085
-0.00138459
-0.00159995
-0.00185225
-0.00209977
-0.00229014
-0.00237696
-0.00230437
0.000767694
0.000676528
0.000463047
0.000192885
-6.10906e-05
-0.000275942
-0.000435363
-0.000536158
-0.000620319
-0.000730152
-0.00087633
-0.00103467
-0.00119093
-0.00136221
-0.00156415
-0.00179614
-0.00202958
-0.00221447
-0.00229955
-0.00222712
0.000745787
0.000652213
0.000435777
0.000160783
-9.92674e-05
-0.000317791
-0.000480978
-0.000584268
-0.000660609
-0.00075119
-0.000873369
-0.00101536
-0.0011619
-0.00132253
-0.00151254
-0.00172628
-0.00194271
-0.00212018
-0.00220318
-0.00213099
0.000719812
0.000623655
0.000404244
0.000125088
-0.000141438
-0.000363766
-0.000529036
-0.000632936
-0.000701764
-0.000774873
-0.00087165
-0.000990553
-0.00112189
-0.00126569
-0.00143849
-0.00163587
-0.00183386
-0.00200057
-0.00208069
-0.00200912
0.000689434
0.000590757
0.000368468
8.53857e-05
-0.000188544
-0.000415118
-0.000581169
-0.000684473
-0.000745608
-0.000801378
-0.000872486
-0.00096298
-0.00107108
-0.00119194
-0.001337
-0.00151247
-0.00169182
-0.00184495
-0.0019216
-0.00185239
0.00065438
0.000553202
0.000328153
4.13434e-05
-0.00024061
-0.000473289
-0.000640072
-0.000741498
-0.000795502
-0.000833882
-0.000877663
-0.000936258
-0.00101119
-0.00110042
-0.00120714
-0.00134272
-0.00149475
-0.00163067
-0.00170379
-0.00164191
0.000614564
0.000510809
0.000282791
-8.44606e-06
-0.00029839
-0.000538193
-0.000708133
-0.000808484
-0.000855953
-0.000877914
-0.000892637
-0.000915279
-0.000948488
-0.000992326
-0.00104743
-0.00112048
-0.00121508
-0.00131062
-0.00137142
-0.00132608
0.000572112
0.000464313
0.000230921
-6.55639e-05
-0.000363248
-0.000610499
-0.000785215
-0.00088947
-0.000934893
-0.000943418
-0.000929613
-0.000910499
-0.000892529
-0.000874734
-0.000861853
-0.000852229
-0.000842393
-0.000827071
-0.000797455
-0.000717392
0.000527713
0.000413263
0.000171352
-0.00013062
-0.000434773
-0.000690497
-0.000871505
-0.00098401
-0.00103589
-0.00104212
-0.00101078
-0.000951896
-0.000864325
-0.000750742
-0.00063657
-0.00054068
-0.000461467
-0.000343465
-0.00011944
0.000219909
0.000477372
0.000356247
0.00010572
-0.000203488
-0.00051449
-0.000777521
-0.000966469
-0.00108921
-0.00115496
-0.00117373
-0.00114709
-0.0010931
-0.0010024
-0.000792112
-0.000371045
0.000227302
0.000859555
0.00140225
0.00178095
0.00193911
0.000421878
0.000296313
3.49884e-05
-0.00028664
-0.000608953
-0.000882853
-0.00107495
-0.00119635
-0.00126327
-0.00128183
-0.00121084
-0.000969434
-0.000556598
-8.01474e-05
0.000375996
0.000769148
0.0010969
0.00136607
0.00156345
0.0016453
0.000361469
0.00024042
-2.40789e-05
-0.000359423
-0.000713259
-0.00104041
-0.00129083
-0.0014312
-0.00140922
-0.00118986
-0.000841409
-0.000455304
-8.09001e-05
0.000276781
0.000643224
0.00103721
0.00143771
0.00180683
0.00207994
0.00217588
0.000279856
0.00013885
-0.000111445
-0.000411802
-0.000717633
-0.000975741
-0.00112792
-0.00116832
-0.00112261
-0.00102728
-0.000914896
-0.000806244
-0.00067666
-0.000462311
-8.61591e-05
0.00050854
0.00124633
0.00194144
0.00242925
0.00260355
0.000245324
0.000111281
-0.000183798
-0.000551575
-0.000919136
-0.00120722
-0.00132876
-0.00128118
-0.00111767
-0.000891111
-0.000608537
-0.000270552
9.78603e-05
0.000489669
0.00089218
0.00128783
0.00165601
0.00196065
0.00215567
0.00217736
0.000150268
1.03125e-05
-0.000231042
-0.000529885
-0.000846133
-0.0011328
-0.0013219
-0.00136702
-0.0012413
-0.00096345
-0.000607924
-0.000241895
8.72676e-05
0.000376382
0.000663923
0.00097458
0.00130588
0.00161734
0.00184966
0.00192509
0.00588215
0.00197798
-0.0045581
-0.00922834
-0.00997512
-0.00855066
-0.00687257
-0.00555609
-0.00459606
-0.0039685
-0.00369759
-0.00362011
-0.0034397
-0.0030939
-0.00274722
-0.00245432
-0.00221241
-0.00206564
-0.00192183
-0.00166271
-0.00135874
-0.00110584
-0.000901523
-0.000713028
-0.000500661
-0.000258207
-3.11273e-05
0.000161339
0.000349452
0.000558843
0.000778838
0.000977957
0.00114807
0.00132087
0.00152037
0.0017296
0.00193201
0.00214357
0.00237897
0.00262287
0.00286021
0.00309816
0.00334515
0.00358573
0.00380894
0.00404418
0.00429999
0.00455631
0.00481327
0.00508975
0.0053826
0.00566131
0.0059338
0.00622405
0.00651824
0.00680665
0.0071098
0.00742922
0.00774893
0.00807812
0.00841233
0.00875289
0.00910133
0.00944768
0.00979985
0.0101582
0.0105238
0.010904
0.0113008
0.0117048
0.0121063
0.0125143
0.0129236
0.0133472
0.0137785
0.0142203
0.01467
0.0151347
0.0156032
0.0160781
0.0165734
0.0170662
0.017574
0.0181023
0.0186272
0.0191747
0.0197323
0.0202856
0.0208697
0.0214602
0.0220479
0.0226669
0.0232847
0.0239163
0.0245716
0.025228
0.0259145
0.0266051
0.0273118
0.0280463
0.00538028
0.00187633
-0.00445344
-0.00909635
-0.00990264
-0.00851596
-0.00685021
-0.00553936
-0.00458263
-0.00395697
-0.00368777
-0.00361233
-0.00343358
-0.00308874
-0.00274269
-0.00245024
-0.00220851
-0.00206211
-0.00191886
-0.00166001
-0.0013561
-0.00110332
-0.000899179
-0.000710896
-0.000498734
-0.000256389
-2.93876e-05
0.000162949
0.000350914
0.000560189
0.000780116
0.00097918
0.00114921
0.0013219
0.00152133
0.00173052
0.00193288
0.00214436
0.00237971
0.00262358
0.0028609
0.00309881
0.00334576
0.00358633
0.00380951
0.00404471
0.0043005
0.0045568
0.00481374
0.00509018
0.00538303
0.00566173
0.00593419
0.00622442
0.00651861
0.006807
0.00711013
0.00742954
0.00774924
0.00807842
0.00841262
0.00875316
0.0091016
0.00944794
0.00980009
0.0101585
0.010524
0.0109042
0.011301
0.011705
0.0121065
0.0125145
0.0129238
0.0133473
0.0137786
0.0142204
0.0146701
0.0151348
0.0156033
0.0160782
0.0165735
0.0170663
0.0175741
0.0181025
0.0186273
0.0191748
0.0197324
0.0202857
0.0208698
0.0214603
0.022048
0.022667
0.0232848
0.0239163
0.0245717
0.0252281
0.0259146
0.0266052
0.0273119
0.0280464
0.00484473
0.00176202
-0.00423857
-0.00883407
-0.00976875
-0.00846574
-0.00682606
-0.00552218
-0.00456891
-0.00394575
-0.00367791
-0.00360325
-0.00342547
-0.00308197
-0.00273747
-0.00244615
-0.00220486
-0.0020588
-0.00191601
-0.00165742
-0.00135367
-0.00110107
-0.000897071
-0.000708944
-0.00049695
-0.000254704
-2.77927e-05
0.00016441
0.000352246
0.000561428
0.000781297
0.000980295
0.00115022
0.00132281
0.00152218
0.00173134
0.00193364
0.00214506
0.00238037
0.00262422
0.0028615
0.00309937
0.00334631
0.00358686
0.00381
0.00404516
0.00430094
0.00455723
0.00481414
0.00509056
0.00538341
0.0056621
0.00593453
0.00622475
0.00651893
0.0068073
0.00711041
0.00742982
0.00774951
0.00807868
0.00841287
0.0087534
0.00910183
0.00944816
0.00980031
0.0101587
0.0105242
0.0109044
0.0113012
0.0117052
0.0121066
0.0125146
0.012924
0.0133475
0.0137788
0.0142206
0.0146703
0.015135
0.0156035
0.0160784
0.0165736
0.0170664
0.0175742
0.0181026
0.0186274
0.0191749
0.0197325
0.0202858
0.0208699
0.0214604
0.022048
0.0226671
0.0232849
0.0239164
0.0245717
0.0252281
0.0259147
0.0266052
0.027312
0.0280466
0.00433782
0.00166663
-0.00395436
-0.00848646
-0.00957692
-0.00839288
-0.00679227
-0.00549813
-0.00455025
-0.00393234
-0.00366697
-0.00359181
-0.00341353
-0.00307144
-0.00272967
-0.0024407
-0.00220043
-0.00205455
-0.001912
-0.00165397
-0.0013509
-0.00109871
-0.000894754
-0.000706656
-0.000494851
-0.000252813
-2.6041e-05
0.000166075
0.000353829
0.0005629
0.000782652
0.000981548
0.00115136
0.00132385
0.00152315
0.00173224
0.00193447
0.00214582
0.0023811
0.00262491
0.00286215
0.00309999
0.00334689
0.00358743
0.00381052
0.00404563
0.00430141
0.00455767
0.00481455
0.00509095
0.00538381
0.00566249
0.00593488
0.00622509
0.00651927
0.00680761
0.0071107
0.00743011
0.00774979
0.00807894
0.00841313
0.00875364
0.00910207
0.00944839
0.00980052
0.0101589
0.0105244
0.0109046
0.0113014
0.0117054
0.0121068
0.0125148
0.0129241
0.0133476
0.0137789
0.0142207
0.0146704
0.0151351
0.0156036
0.0160785
0.0165738
0.0170665
0.0175743
0.0181027
0.0186275
0.019175
0.0197326
0.0202859
0.02087
0.0214605
0.0220481
0.0226672
0.023285
0.0239165
0.0245718
0.0252282
0.0259147
0.0266053
0.0273121
0.0280469
0.00385735
0.00156291
-0.00365829
-0.00811162
-0.00936115
-0.00830965
-0.00675377
-0.00546888
-0.00452652
-0.0039161
-0.0036544
-0.00357741
-0.00339702
-0.00305637
-0.00271853
-0.00243335
-0.00219478
-0.0020486
-0.00190571
-0.00164869
-0.00134727
-0.00109597
-0.000891944
-0.000703655
-0.00049211
-0.000250564
-2.40612e-05
0.000168098
0.00035592
0.000564861
0.000784386
0.000983124
0.00115284
0.00132521
0.00152436
0.00173335
0.00193549
0.00214678
0.00238199
0.00262575
0.00286294
0.00310073
0.00334759
0.00358808
0.00381111
0.00404618
0.00430193
0.00455817
0.00481502
0.00509141
0.00538426
0.00566292
0.00593528
0.00622547
0.00651964
0.00680795
0.00711102
0.00743043
0.00775009
0.00807923
0.00841342
0.00875391
0.00910234
0.00944865
0.00980076
0.0101591
0.0105246
0.0109048
0.0113016
0.0117056
0.012107
0.012515
0.0129243
0.0133478
0.0137791
0.0142209
0.0146705
0.0151352
0.0156037
0.0160786
0.0165739
0.0170666
0.0175744
0.0181028
0.0186276
0.0191751
0.0197327
0.020286
0.0208701
0.0214606
0.0220482
0.0226672
0.0232851
0.0239165
0.0245719
0.0252283
0.0259148
0.0266054
0.0273121
0.0280473
0.00339163
0.00142657
-0.00337265
-0.00772438
-0.00912964
-0.00822048
-0.00671393
-0.00543711
-0.00449931
-0.00389735
-0.00364018
-0.00356071
-0.00337729
-0.00303804
-0.00270484
-0.00242446
-0.00218806
-0.00204081
-0.00189674
-0.00164108
-0.00134235
-0.00109259
-0.000888418
-0.000699658
-0.000488464
-0.000247849
-2.18785e-05
0.000170457
0.000358569
0.000567392
0.000786573
0.000985134
0.00115484
0.00132709
0.00152599
0.00173476
0.0019368
0.002148
0.0023831
0.00262678
0.00286394
0.00310167
0.00334845
0.00358886
0.00381183
0.00404684
0.00430255
0.00455875
0.00481558
0.00509194
0.00538479
0.00566342
0.00593574
0.00622592
0.00652006
0.00680833
0.00711139
0.0074308
0.00775044
0.00807957
0.00841374
0.00875422
0.00910264
0.00944893
0.00980103
0.0101594
0.0105249
0.010905
0.0113018
0.0117058
0.0121072
0.0125152
0.0129245
0.013348
0.0137792
0.014221
0.0146707
0.0151354
0.0156039
0.0160787
0.016574
0.0170668
0.0175746
0.0181029
0.0186277
0.0191753
0.0197329
0.0202861
0.0208702
0.0214607
0.0220483
0.0226673
0.0232852
0.0239166
0.024572
0.0252283
0.0259149
0.0266054
0.0273122
0.0280479
0.00293558
0.00125431
-0.0030997
-0.00732373
-0.00888039
-0.00812423
-0.00667305
-0.00540394
-0.00446935
-0.00387604
-0.00362419
-0.00354246
-0.00335585
-0.00301812
-0.00268997
-0.00241491
-0.00218075
-0.00203159
-0.00188544
-0.00163128
-0.00133604
-0.00108834
-0.000884004
-0.000694524
-0.000483754
-0.000244522
-1.94197e-05
0.000173141
0.000361713
0.000570407
0.000789124
0.000987548
0.00115744
0.00132967
0.00152819
0.00173661
0.00193852
0.0021496
0.00238449
0.00262803
0.00286519
0.00310289
0.00334953
0.00358985
0.00381276
0.00404768
0.00430328
0.00455944
0.00481626
0.0050926
0.0053854
0.00566402
0.00593631
0.00622645
0.00652054
0.00680878
0.00711182
0.00743121
0.00775084
0.00807996
0.00841412
0.00875457
0.00910298
0.00944926
0.00980134
0.0101597
0.0105252
0.0109053
0.0113021
0.0117061
0.0121075
0.0125154
0.0129247
0.0133482
0.0137794
0.0142212
0.0146709
0.0151356
0.015604
0.0160789
0.0165742
0.0170669
0.0175747
0.0181031
0.0186279
0.0191754
0.019733
0.0202862
0.0208703
0.0214608
0.0220484
0.0226674
0.0232853
0.0239167
0.0245721
0.0252284
0.0259149
0.0266055
0.0273123
0.0280485
0.00249588
0.00105581
-0.0028383
-0.00690905
-0.00861177
-0.00801998
-0.00663164
-0.00537041
-0.00443717
-0.00385213
-0.00360644
-0.00352312
-0.00333349
-0.00299737
-0.00267449
-0.00240502
-0.00217311
-0.00202151
-0.00187265
-0.00161992
-0.00132857
-0.00108324
-0.000878711
-0.000688336
-0.000478035
-0.000240508
-1.65436e-05
0.000176219
0.000365293
0.000573752
0.000791847
0.000990184
0.00116053
0.00133293
0.00153104
0.00173902
0.00194078
0.00215169
0.0023862
0.00262949
0.00286667
0.00310438
0.00335086
0.00359107
0.00381397
0.00404878
0.00430419
0.00456027
0.0048171
0.0050934
0.00538613
0.00566473
0.00593702
0.0062271
0.00652111
0.00680931
0.00711233
0.0074317
0.0077513
0.00808041
0.00841457
0.00875499
0.00910338
0.00944964
0.0098017
0.01016
0.0105255
0.0109056
0.0113024
0.0117064
0.0121078
0.0125157
0.012925
0.0133484
0.0137797
0.0142215
0.0146711
0.0151358
0.0156042
0.0160791
0.0165744
0.0170671
0.0175749
0.0181032
0.018628
0.0191755
0.0197331
0.0202863
0.0208704
0.0214609
0.0220485
0.0226676
0.0232854
0.0239168
0.0245722
0.0252285
0.025915
0.0266056
0.0273124
0.0280493
0.00208323
0.000839928
-0.00259353
-0.00648526
-0.00832443
-0.00790725
-0.00659006
-0.00533722
-0.00440305
-0.00382552
-0.00358685
-0.0035028
-0.00331039
-0.00297591
-0.00265837
-0.00239463
-0.00216508
-0.00201089
-0.00185899
-0.0016076
-0.00132027
-0.00107743
-0.000872696
-0.000681337
-0.000471523
-0.000235866
-1.31766e-05
0.00017976
0.000369294
0.000577338
0.000794599
0.000992841
0.00116387
0.00133667
0.00153443
0.00174199
0.00194366
0.00215434
0.00238831
0.00263119
0.00286836
0.00310608
0.0033524
0.00359254
0.00381551
0.00405021
0.00430534
0.00456129
0.00481813
0.00509434
0.00538697
0.00566559
0.00593791
0.0062279
0.00652181
0.00680997
0.00711295
0.00743227
0.00775183
0.00808095
0.00841509
0.00875549
0.00910386
0.00945009
0.00980211
0.0101604
0.0105258
0.0109059
0.0113027
0.0117068
0.0121081
0.012516
0.0129253
0.0133487
0.01378
0.0142217
0.0146714
0.015136
0.0156045
0.0160793
0.0165746
0.0170673
0.017575
0.0181034
0.0186282
0.0191757
0.0197333
0.0202865
0.0208706
0.0214611
0.0220487
0.0226677
0.0232855
0.0239169
0.0245723
0.0252286
0.0259151
0.0266057
0.0273125
0.0280502
0.00170587
0.000612427
-0.00237374
-0.006059