/*--------------------------------*- C++ -*----------------------------------*\
| =========                 |                                                 |
| \\      /  F ield         | OpenFOAM: The Open Source CFD Toolbox           |
|  \\    /   O peration     | Version:  2506                                  |
|   \\  /    A nd           | Website:  www.openfoam.com                      |
|    \\/     M anipulation  |                                                 |
\*---------------------------------------------------------------------------*/
FoamFile
{
    version     2.0;
    format      ascii;
    arch        "LSB;label=32;scalar=64";
    class       surfaceScalarField;
    location    "1.75";
    object      phi;
}
// * * * * * * * * * * * * * * * * * * * * * * * * * * * * * * * * * * * * * //

dimensions      [0 3 -1 0 0 0 0];

oriented        oriented;

internalField   nonuniform List<scalar> 
19000
(
1.17845e-06
-1.14917e-08
1.16858e-06
3.71865e-08
1.15681e-06
2.75419e-07
1.14943e-06
-5.79806e-07
1.203e-06
9.30421e-08
1.15169e-06
1.12582e-07
1.12672e-06
9.22849e-08
1.15562e-06
2.96294e-07
1.14695e-06
-3.33696e-08
1.15422e-06
-2.34385e-07
1.17865e-06
-6.83814e-08
1.1608e-06
-4.2327e-07
1.18427e-06
2.06313e-07
1.15178e-06
-2.37801e-07
1.17139e-06
1.74954e-07
1.14196e-06
6.41948e-08
1.15394e-06
2.34438e-07
1.13907e-06
2.41507e-07
1.13354e-06
2.20595e-07
1.79272e-07
1.10686e-06
1.23331e-06
-2.05437e-08
1.22527e-06
4.52284e-08
1.21062e-06
2.90074e-07
1.20296e-06
-5.72152e-07
1.2558e-06
4.02051e-08
1.2097e-06
1.58679e-07
1.18025e-06
1.21734e-07
1.21361e-06
2.62943e-07
1.20332e-06
-2.30843e-08
1.21137e-06
-2.42434e-07
1.23177e-06
-8.87789e-08
1.21723e-06
-4.08735e-07
1.23392e-06
1.89626e-07
1.211e-06
-2.14882e-07
1.21719e-06
1.68761e-07
1.20739e-06
7.39925e-08
1.19491e-06
2.46924e-07
1.20931e-06
2.27102e-07
1.17235e-06
2.57558e-07
1.62263e-07
1.18936e-06
1.28934e-06
-2.71003e-08
1.28484e-06
4.97248e-08
1.26804e-06
3.06881e-07
1.26123e-06
-5.65342e-07
1.30765e-06
-6.21947e-09
1.27468e-06
1.91647e-07
1.23825e-06
1.58161e-07
1.27222e-06
2.28977e-07
1.26309e-06
-1.3951e-08
1.27188e-06
-2.51224e-07
1.28668e-06
-1.03583e-07
1.27918e-06
-4.01232e-07
1.28917e-06
1.79631e-07
1.27769e-06
-2.03403e-07
1.27244e-06
1.74011e-07
1.27317e-06
7.32685e-08
1.2549e-06
2.65195e-07
1.26495e-06
2.17047e-07
1.24561e-06
2.769e-07
1.71855e-07
1.23602e-06
1.34731e-06
-3.03074e-08
1.34659e-06
5.04478e-08
1.32963e-06
3.23842e-07
1.32481e-06
-5.60527e-07
1.36094e-06
-4.23444e-08
1.34265e-06
2.0993e-07
1.3034e-06
1.97415e-07
1.33192e-06
2.00461e-07
1.32715e-06
-9.18462e-09
1.33447e-06
-2.58542e-07
1.34489e-06
-1.14007e-07
1.34284e-06
-3.99183e-07
1.35068e-06
1.7179e-07
1.34547e-06
-1.98186e-07
1.33799e-06
1.81486e-07
1.3381e-06
7.31595e-08
1.32646e-06
2.76833e-07
1.32595e-06
2.17555e-07
1.32049e-06
2.82363e-07
1.88491e-07
1.30385e-06
1.40829e-06
-3.0244e-08
1.41024e-06
4.85016e-08
1.39569e-06
3.38393e-07
1.39284e-06
-5.57682e-07
1.41744e-06
-6.69388e-08
1.41062e-06
2.16749e-07
1.37585e-06
2.32178e-07
1.3954e-06
1.80914e-07
1.3954e-06
-9.18944e-09
1.39968e-06
-2.62813e-07
1.40691e-06
-1.21244e-07
1.40713e-06
-3.99403e-07
1.4156e-06
1.63326e-07
1.41257e-06
-1.95163e-07
1.40737e-06
1.86692e-07
1.40448e-06
7.60474e-08
1.39883e-06
2.82478e-07
1.39378e-06
2.22607e-07
1.3927e-06
2.83442e-07
2.04261e-07
1.37693e-06
1.47331e-06
-2.78743e-08
1.47626e-06
4.55486e-08
1.46611e-06
3.48541e-07
1.46423e-06
-5.55797e-07
1.4784e-06
-8.11113e-08
1.47828e-06
2.16868e-07
1.45335e-06
2.57104e-07
1.46461e-06
1.69663e-07
1.46693e-06
-1.15098e-08
1.46816e-06
-2.64052e-07
1.47258e-06
-1.25663e-07
1.47259e-06
-3.99409e-07
1.48199e-06
1.53924e-07
1.47973e-06
-1.929e-07
1.4774e-06
1.89024e-07
1.47287e-06
8.05763e-08
1.4709e-06
2.84449e-07
1.46466e-06
2.28839e-07
1.46586e-06
2.8225e-07
2.19016e-07
1.4511e-06
1.54287e-06
-2.4524e-08
1.54555e-06
4.28642e-08
1.54037e-06
3.53717e-07
1.53828e-06
-5.53701e-07
1.54427e-06
-8.71029e-08
1.54715e-06
2.13983e-07
1.5331e-06
2.7116e-07
1.5392e-06
1.63563e-07
1.54119e-06
-1.35037e-08
1.54005e-06
-2.62913e-07
1.54178e-06
-1.2739e-07
1.54022e-06
-3.97851e-07
1.54981e-06
1.44333e-07
1.54779e-06
-1.90876e-07
1.54829e-06
1.88521e-07
1.54347e-06
8.54029e-08
1.54466e-06
2.83259e-07
1.5381e-06
2.35396e-07
1.54151e-06
2.78835e-07
2.32956e-07
1.52757e-06
1.61684e-06
-2.12304e-08
1.61883e-06
4.08658e-08
1.61783e-06
3.5472e-07
1.61478e-06
-5.50652e-07
1.61495e-06
-8.72679e-08
1.6189e-06
2.10034e-07
1.61366e-06
2.76391e-07
1.61769e-06
1.59537e-07
1.61824e-06
-1.40512e-08
1.61533e-06
-2.60007e-07
1.61463e-06
-1.26691e-07
1.61103e-06
-3.94252e-07
1.61998e-06
1.35391e-07
1.61758e-06
-1.88477e-07
1.62089e-06
1.85208e-07
1.61633e-06
8.99669e-08
1.62088e-06
2.78703e-07
1.61425e-06
2.42024e-07
1.61963e-06
2.7346e-07
2.45812e-07
1.60677e-06
1.69478e-06
-1.84332e-08
1.69635e-06
3.92899e-08
1.69811e-06
3.52964e-07
1.69383e-06
-5.46376e-07
1.69023e-06
-8.36608e-08
1.69459e-06
2.05671e-07
1.69525e-06
2.75729e-07
1.69898e-06
1.55809e-07
1.69824e-06
-1.3313e-08
1.69408e-06
-2.55845e-07
1.69145e-06
-1.24058e-07
1.68578e-06
-3.88585e-07
1.69361e-06
1.27566e-07
1.69007e-06
-1.84941e-07
1.69588e-06
1.794e-07
1.69145e-06
9.43954e-08
1.69929e-06
2.70862e-07
1.69276e-06
2.48556e-07
1.69956e-06
2.66657e-07
2.57122e-07
1.68825e-06
1.77639e-06
-1.60983e-08
1.77801e-06
3.76664e-08
1.78126e-06
3.49715e-07
1.77572e-06
-5.40837e-07
1.77e-06
-7.79394e-08
1.77476e-06
2.00906e-07
1.77879e-06
2.71698e-07
1.7828e-06
1.51802e-07
1.78136e-06
-1.1876e-08
1.77636e-06
-2.50845e-07
1.77247e-06
-1.20163e-07
1.76489e-06
-3.81002e-07
1.7716e-06
1.2085e-07
1.76628e-06
-1.79622e-07
1.77397e-06
1.71717e-07
1.76915e-06
9.92118e-08
1.77968e-06
2.60333e-07
1.77337e-06
2.54868e-07
1.78093e-06
2.59091e-07
2.6633e-07
1.77172e-06
1.86166e-06
-1.40124e-08
1.86366e-06
3.5665e-08
1.86762e-06
3.45758e-07
1.86083e-06
-5.34044e-07
1.8542e-06
-7.13161e-08
1.85956e-06
1.95552e-07
1.86519e-06
2.66063e-07
1.86943e-06
1.47568e-07
1.86781e-06
-1.02582e-08
1.86223e-06
-2.45267e-07
1.85777e-06
-1.157e-07
1.8485e-06
-3.71736e-07
1.85446e-06
1.14889e-07
1.84701e-06
-1.72172e-07
1.85591e-06
1.62818e-07
1.85015e-06
1.04973e-07
1.86247e-06
2.48011e-07
1.85652e-06
2.60825e-07
1.86409e-06
2.51518e-07
2.72895e-07
1.85753e-06
1.95081e-06
-1.19869e-08
1.9533e-06
3.31739e-08
1.95762e-06
3.41444e-07
1.94959e-06
-5.26014e-07
1.94282e-06
-6.45437e-08
1.9489e-06
1.89467e-07
1.95509e-06
2.59878e-07
1.95931e-06
1.43346e-07
1.95786e-06
-8.80867e-09
1.95179e-06
-2.39201e-07
1.94731e-06
-1.11222e-07
1.93663e-06
-3.61047e-07
1.94233e-06
1.09185e-07
1.93272e-06
-1.62565e-07
1.94237e-06
1.53174e-07
1.93535e-06
1.1199e-07
1.94853e-06
2.34826e-07
1.94315e-06
2.6621e-07
1.94991e-06
2.44757e-07
2.76393e-07
1.94641e-06
2.04412e-06
-9.91633e-09
2.04707e-06
3.02261e-08
2.05164e-06
3.36872e-07
2.04243e-06
-5.16805e-07
2.03587e-06
-5.79856e-08
2.04268e-06
1.82656e-07
2.04892e-06
2.53643e-07
2.0529e-06
1.39364e-07
2.05184e-06
-7.74954e-09
2.04526e-06
-2.32618e-07
2.04111e-06
-1.0707e-07
2.02923e-06
-3.4917e-07
2.03515e-06
1.03266e-07
2.02359e-06
-1.51006e-07
2.03373e-06
1.43029e-07
2.02549e-06
1.20229e-07
2.03873e-06
2.21585e-07
2.03424e-06
2.70701e-07
2.03946e-06
2.39536e-07
2.76668e-07
2.03919e-06
2.14184e-06
-7.7583e-09
2.14516e-06
2.69094e-08
2.14998e-06
3.32051e-07
2.13971e-06
-5.06537e-07
2.13348e-06
-5.17547e-08
2.14086e-06
1.75282e-07
2.14704e-06
2.47463e-07
2.15062e-06
1.35777e-07
2.15009e-06
-7.21664e-09
2.14292e-06
-2.2545e-07
2.13926e-06
-1.03413e-07
2.12637e-06
-3.36274e-07
2.13283e-06
9.68035e-08
2.11964e-06
-1.37813e-07
2.13017e-06
1.32498e-07
2.12103e-06
1.29364e-07
2.13367e-06
2.08949e-07
2.13047e-06
2.73901e-07
2.13372e-06
2.3629e-07
2.73948e-07
2.13644e-06
2.24423e-06
-5.50334e-09
2.24783e-06
2.33148e-08
2.25291e-06
3.26972e-07
2.24174e-06
-4.95372e-07
2.23584e-06
-4.58546e-08
2.24351e-06
1.67615e-07
2.24976e-06
2.41214e-07
2.25285e-06
1.32681e-07
2.25292e-06
-7.28421e-09
2.2451e-06
-2.17627e-07
2.242e-06
-1.00312e-07
2.22819e-06
-3.2247e-07
2.23536e-06
8.96417e-08
2.22089e-06
-1.23343e-07
2.23169e-06
1.21696e-07
2.22216e-06
1.38889e-07
2.23364e-06
1.97468e-07
2.23214e-06
2.75402e-07
2.23337e-06
2.35065e-07
2.68835e-07
2.23848e-06
2.35153e-06
-3.15551e-09
2.35533e-06
1.95161e-08
2.36066e-06
3.21639e-07
2.34876e-06
-4.83468e-07
2.34318e-06
-4.0276e-08
2.35084e-06
1.59953e-07
2.35737e-06
2.34684e-07
2.35992e-06
1.30129e-07
2.36062e-06
-7.9863e-09
2.35209e-06
-2.091e-07
2.34955e-06
-9.77717e-08
2.33493e-06
-3.07846e-07
2.34278e-06
8.17918e-08
2.3274e-06
-1.07961e-07
2.33828e-06
1.10818e-07
2.32893e-06
1.48232e-07
2.33879e-06
1.87607e-07
2.33932e-06
2.74875e-07
2.33878e-06
2.35604e-07
2.62141e-07
2.34548e-06
2.46396e-06
-7.23408e-10
2.46791e-06
1.55652e-08
2.47349e-06
3.16061e-07
2.46097e-06
-4.70944e-07
2.45573e-06
-3.50389e-08
2.46312e-06
1.52568e-07
2.47013e-06
2.2767e-07
2.47211e-06
1.28152e-07
2.47346e-06
-9.33421e-09
2.4642e-06
-1.99842e-07
2.46218e-06
-9.57567e-08
2.44684e-06
-2.92504e-07
2.45523e-06
7.33982e-08
2.43932e-06
-9.20442e-08
2.44998e-06
1.0016e-07
2.44137e-06
1.56835e-07
2.44927e-06
1.79708e-07
2.45196e-06
2.72191e-07
2.4501e-06
2.37464e-07
2.54683e-07
2.45755e-06
2.58179e-06
1.78377e-09
2.58586e-06
1.14952e-08
2.59167e-06
3.10245e-07
2.57859e-06
-4.57859e-07
2.57375e-06
-3.01965e-08
2.58064e-06
1.45673e-07
2.5883e-06
2.2001e-07
2.58968e-06
1.26777e-07
2.59167e-06
-1.13279e-08
2.58169e-06
-1.89865e-07
2.58012e-06
-9.41883e-08
2.56422e-06
-2.76599e-07
2.57291e-06
6.471e-08
2.55685e-06
-7.5989e-08
2.56692e-06
9.00914e-08
2.55953e-06
1.64225e-07
2.56531e-06
1.73933e-07
2.57001e-06
2.67491e-07
2.56741e-06
2.40059e-07
2.4719e-07
2.5749e-06
2.70526e-06
4.35672e-09
2.70942e-06
7.32878e-09
2.71548e-06
3.04186e-07
2.70184e-06
-4.44221e-07
2.69747e-06
-2.5825e-08
2.70372e-06
1.39421e-07
2.71214e-06
2.11592e-07
2.71289e-06
1.26033e-07
2.71551e-06
-1.39518e-08
2.70487e-06
-1.79224e-07
2.70361e-06
-9.29307e-08
2.68737e-06
-2.60358e-07
2.69603e-06
5.60459e-08
2.68024e-06
-6.01909e-08
2.68933e-06
8.09992e-08
2.68348e-06
1.7007e-07
2.68719e-06
1.70225e-07
2.69353e-06
2.61155e-07
2.69084e-06
2.42751e-07
2.40234e-07
2.69779e-06
2.83464e-06
6.98442e-09
2.83888e-06
3.08806e-09
2.8452e-06
2.97864e-07
2.83098e-06
-4.3e-07
2.82717e-06
-2.20128e-08
2.83267e-06
1.33923e-07
2.84192e-06
2.02342e-07
2.84201e-06
1.25944e-07
2.84522e-06
-1.7161e-08
2.83403e-06
-1.68035e-07
2.83289e-06
-9.17907e-08
2.8166e-06
-2.44067e-07
2.82489e-06
4.77505e-08
2.8097e-06
-4.50012e-08
2.81751e-06
7.31946e-08
2.81334e-06
1.74238e-07
2.81524e-06
1.68326e-07
2.82272e-06
2.53669e-07
2.82049e-06
2.44985e-07
2.34175e-07
2.82655e-06
2.97023e-06
9.65161e-09
2.97451e-06
-1.19772e-09
2.98113e-06
2.91244e-07
2.96627e-06
-4.1514e-07
2.96311e-06
-1.88528e-08
2.96777e-06
1.29263e-07
2.9779e-06
1.9222e-07
2.97733e-06
1.26508e-07
2.98104e-06
-2.08675e-08
2.96948e-06
-1.56477e-07
2.9682e-06
-9.05136e-08
2.95219e-06
-2.28056e-07
2.95979e-06
4.01561e-08
2.94547e-06
-3.06866e-08
2.95182e-06
6.68432e-08
2.94926e-06
1.76801e-07
2.94971e-06
1.67878e-07
2.9579e-06
2.45475e-07
2.95651e-06
2.46376e-07
2.29166e-07
2.96152e-06
3.11232e-06
1.23368e-08
3.11661e-06
-5.48753e-09
3.12358e-06
2.84276e-07
3.10801e-06
-3.99569e-07
3.10559e-06
-1.64385e-08
3.10935e-06
1.25508e-07
3.12035e-06
1.81218e-07
3.11918e-06
1.27678e-07
3.12324e-06
-2.49252e-08
3.11156e-06
-1.44799e-07
3.10985e-06
-8.87983e-08
3.09444e-06
-2.12646e-07
3.10108e-06
3.35121e-08
3.08777e-06
-1.73805e-08
3.09266e-06
6.196e-08
3.0915e-06
1.77958e-07
3.09083e-06
1.68544e-07
3.09943e-06
2.36882e-07
3.09912e-06
2.46678e-07
2.25238e-07
3.10305e-06
3.26123e-06
1.50117e-08
3.26547e-06
-9.72744e-09
3.27286e-06
2.76895e-07
3.25649e-06
-3.83207e-07
3.25491e-06
-1.48575e-08
3.25772e-06
1.22704e-07
3.26956e-06
1.69372e-07
3.26789e-06
1.29354e-07
3.27209e-06
-2.91234e-08
3.26061e-06
-1.33321e-07
3.25813e-06
-8.63174e-08
3.24359e-06
-1.98107e-07
3.24915e-06
2.79517e-08
3.23683e-06
-5.0669e-09
3.24036e-06
5.84335e-08
3.24037e-06
1.77945e-07
3.23885e-06
1.70071e-07
3.24763e-06
2.28099e-07
3.24857e-06
2.45743e-07
2.22306e-07
3.2515e-06
3.4173e-06
1.76422e-08
3.42142e-06
-1.38514e-08
3.4293e-06
2.69022e-07
3.41206e-06
-3.65967e-07
3.41139e-06
-1.41862e-08
3.41322e-06
1.20874e-07
3.42582e-06
1.56769e-07
3.4238e-06
1.31369e-07
3.42788e-06
-3.31963e-08
3.41695e-06
-1.22393e-07
3.41341e-06
-8.27751e-08
3.39989e-06
-1.84593e-07
3.40439e-06
2.34589e-08
3.39291e-06
6.40593e-09
3.39527e-06
5.60769e-08
3.39626e-06
1.76954e-07
3.39407e-06
1.72265e-07
3.40281e-06
2.19352e-07
3.40514e-06
2.43411e-07
2.20235e-07
3.40721e-06
3.58086e-06
2.01908e-08
3.58479e-06
-1.77833e-08
3.59325e-06
2.6057e-07
3.57505e-06
-3.47768e-07
3.57534e-06
-1.44822e-08
3.57621e-06
1.20006e-07
3.58942e-06
1.43557e-07
3.58731e-06
1.33486e-07
3.59093e-06
-3.68208e-08
3.58093e-06
-1.12391e-07
3.5761e-06
-7.79437e-08
3.56361e-06
-1.72103e-07
3.56719e-06
1.98766e-08
3.55634e-06
1.72559e-08
3.55766e-06
5.47581e-08
3.55958e-06
1.75031e-07
3.55686e-06
1.7499e-07
3.56527e-06
2.10936e-07
3.56917e-06
2.39516e-07
2.18812e-07
3.57059e-06
3.75228e-06
2.26184e-08
3.75593e-06
-2.14381e-08
3.76506e-06
2.5144e-07
3.74584e-06
-3.28545e-07
3.74713e-06
-1.57704e-08
3.74709e-06
1.20038e-07
3.7607e-06
1.29957e-07
3.75878e-06
1.35404e-07
3.7616e-06
-3.96475e-08
3.75286e-06
-1.03642e-07
3.74666e-06
-7.1743e-08
3.735e-06
-1.60446e-07
3.73794e-06
1.6934e-08
3.72749e-06
2.77062e-08
3.72783e-06
5.4414e-08
3.73071e-06
1.72159e-07
3.72765e-06
1.78042e-07
3.73536e-06
2.03232e-07
3.74092e-06
2.33952e-07
2.17697e-07
3.74204e-06
3.93192e-06
2.48866e-08
3.9352e-06
-2.4721e-08
3.94511e-06
2.41531e-07
3.92483e-06
-3.08259e-07
3.92708e-06
-1.80272e-08
3.92628e-06
1.20843e-07
3.93998e-06
1.16254e-07
3.93861e-06
1.3677e-07
3.94029e-06
-4.1328e-08
3.93304e-06
-9.63901e-08
3.92555e-06
-6.42519e-08
3.91438e-06
-1.49277e-07
3.91699e-06
1.4324e-08
3.90678e-06
3.79151e-08
3.90611e-06
5.50861e-08
3.90997e-06
1.68302e-07
3.90689e-06
1.81117e-07
3.9135e-06
1.96627e-07
3.92064e-06
2.26805e-07
2.1639e-07
3.92195e-06
4.12018e-06
2.69575e-08
4.12299e-06
-2.75282e-08
4.13377e-06
2.30746e-07
4.11243e-06
-2.86922e-07
4.11557e-06
-2.1165e-08
4.11419e-06
1.22221e-07
4.12765e-06
1.02801e-07
4.12722e-06
1.37202e-07
4.12744e-06
-4.15477e-08
4.12176e-06
-9.07191e-08
4.11325e-06
-5.57387e-08
4.10215e-06
-1.38178e-07
4.10466e-06
1.18203e-08
4.09469e-06
4.78761e-08
4.09289e-06
5.68901e-08
4.09767e-06
1.6352e-07
4.09498e-06
1.83812e-07
4.10023e-06
1.91372e-07
4.10858e-06
2.1846e-07
2.14287e-07
4.11068e-06
4.31747e-06
2.87934e-08
4.31968e-06
-2.97459e-08
4.33143e-06
2.18999e-07
4.30912e-06
-2.64608e-07
4.31298e-06
-2.50234e-08
4.31129e-06
1.23902e-07
4.3241e-06
8.99909e-08
4.32498e-06
1.36325e-07
4.32354e-06
-4.01012e-08
4.31931e-06
-8.64916e-08
4.3102e-06
-4.6635e-08
4.29876e-06
-1.26729e-07
4.30124e-06
9.33421e-09
4.29168e-06
5.74357e-08
4.28861e-06
5.9963e-08
4.29418e-06
1.57949e-07
4.29226e-06
1.85728e-07
4.29615e-06
1.8749e-07
4.30506e-06
2.09546e-07
2.10848e-07
4.3085e-06
4.52421e-06
3.03555e-08
4.52572e-06
-3.12543e-08
4.53848e-06
2.06235e-07
4.51535e-06
-2.41473e-07
4.51969e-06
-2.93602e-08
4.51804e-06
1.25548e-07
4.52979e-06
7.82433e-08
4.53232e-06
1.33793e-07
4.52914e-06
-3.69167e-08
4.52601e-06
-8.33691e-08
4.51682e-06
-3.74426e-08
4.50468e-06
-1.14588e-07
4.50709e-06
6.92361e-09
4.49815e-06
6.63711e-08
4.49377e-06
6.43491e-08
4.49991e-06
1.51812e-07
4.4991e-06
1.86531e-07
4.5018e-06
1.8479e-07
4.5106e-06
2.00749e-07
2.05821e-07
4.51563e-06
4.74087e-06
3.16039e-08
4.74155e-06
-3.19365e-08
4.75535e-06
1.92438e-07
4.73163e-06
-2.17755e-07
4.73613e-06
-3.3859e-08
4.73489e-06
1.26782e-07
4.74518e-06
6.79523e-08
4.7496e-06
1.29375e-07
4.7448e-06
-3.21185e-08
4.7423e-06
-8.08713e-08
4.73348e-06
-2.86177e-08
4.72043e-06
-1.01539e-07
4.72257e-06
4.78063e-09
4.71449e-06
7.44535e-08
4.70891e-06
6.99275e-08
4.7153e-06
1.45422e-07
4.71585e-06
1.85985e-07
4.71772e-06
1.8292e-07
4.72581e-06
1.9266e-07
1.9932e-07
4.73231e-06
4.9679e-06
3.24996e-08
4.96766e-06
-3.1694e-08
4.98244e-06
1.77658e-07
4.95848e-06
-1.93794e-07
4.96276e-06
-3.81388e-08
4.96231e-06
1.27233e-07
4.97081e-06
5.94521e-08
4.97714e-06
1.23044e-07
4.97108e-06
-2.6064e-08
4.96867e-06
-7.84592e-08
4.96053e-06
-2.04798e-08
4.94651e-06
-8.75181e-08
4.94808e-06
3.21435e-09
4.94111e-06
8.14262e-08
4.93461e-06
7.64237e-08
4.94089e-06
1.39142e-07
4.94292e-06
1.8396e-07
4.94431e-06
1.81521e-07
4.95139e-06
1.85586e-07
1.91831e-07
4.95888e-06
5.20581e-06
3.30052e-08
5.20458e-06
-3.04621e-08
5.22022e-06
1.62013e-07
5.19644e-06
-1.70008e-07
5.20009e-06
-4.17944e-08
5.20074e-06
1.26587e-07
5.20725e-06
5.29454e-08
5.21521e-06
1.15077e-07
5.20846e-06
-1.9309e-08
5.20564e-06
-7.56429e-08
5.19831e-06
-1.31493e-08
5.18341e-06
-7.26113e-08
5.18405e-06
2.5684e-09
5.17849e-06
8.69891e-08
5.17142e-06
8.34934e-08
5.17725e-06
1.33313e-07
5.18074e-06
1.80467e-07
5.18201e-06
1.80256e-07
5.18803e-06
1.79562e-07
1.84011e-07
5.19585e-06
5.45511e-06
3.30875e-08
5.45286e-06
-2.82184e-08
5.46919e-06
1.45684e-07
5.44604e-06
-1.46859e-07
5.44871e-06
-4.44611e-08
5.45064e-06
1.24656e-07
5.45517e-06
4.8413e-08
5.46427e-06
1.05982e-07
5.45733e-06
-1.23744e-08
5.45375e-06
-7.20627e-08
5.44716e-06
-6.55378e-09
5.43155e-06
-5.70056e-08
5.43105e-06
3.07145e-09
5.42715e-06
9.0889e-08
5.41989e-06
9.07494e-08
5.42498e-06
1.28232e-07
5.4298e-06
1.75644e-07
5.43122e-06
1.78833e-07
5.43631e-06
1.74472e-07
1.76413e-07
5.44391e-06
5.71633e-06
3.27198e-08
5.71309e-06
-2.49844e-08
5.72988e-06
1.28894e-07
5.70783e-06
-1.2481e-07
5.70925e-06
-4.58738e-08
5.71248e-06
1.21421e-07
5.7152e-06
4.56922e-08
5.72484e-06
9.63459e-08
5.71809e-06
-5.62529e-09
5.71343e-06
-6.7407e-08
5.70739e-06
-5.11846e-10
5.69153e-06
-4.11441e-08
5.68981e-06
4.79153e-09
5.68763e-06
9.3067e-08
5.68056e-06
9.78169e-08
5.6847e-06
1.241e-07
5.69062e-06
1.6972e-07
5.69244e-06
1.77009e-07
5.69677e-06
1.70146e-07
1.69354e-07
5.70383e-06
5.99003e-06
3.18835e-08
5.98587e-06
-2.08225e-08
6.00287e-06
1.11895e-07
5.98236e-06
-1.04307e-07
5.98237e-06
-4.58771e-08
5.98673e-06
1.17054e-07
5.98786e-06
4.45609e-08
5.99747e-06
8.67411e-08
5.99101e-06
8.28805e-10
5.98498e-06
-6.13724e-08
5.97939e-06
5.07774e-09
5.96396e-06
-2.57112e-08
5.9612e-06
7.54721e-09
5.9605e-06
9.37725e-08
5.95399e-06
1.04321e-07
5.957e-06
1.21091e-07
5.96377e-06
1.62955e-07
5.96621e-06
1.74561e-07
5.96991e-06
1.6645e-07
1.62904e-07
5.97636e-06
6.2768e-06
3.05679e-08
6.2718e-06
-1.58163e-08
6.28876e-06
9.49338e-08
6.27011e-06
-8.56565e-08
6.26872e-06
-4.44913e-08
6.27401e-06
1.11763e-07
6.27374e-06
4.48309e-08
6.28269e-06
7.7797e-08
6.27655e-06
6.96468e-09
6.26886e-06
-5.36846e-08
6.26386e-06
1.00786e-08
6.24957e-06
-1.14164e-08
6.24593e-06
1.1188e-08
6.24638e-06
9.33208e-08
6.24072e-06
1.09979e-07
6.24255e-06
1.19261e-07
6.2498e-06
1.55702e-07
6.25311e-06
1.71253e-07
6.25629e-06
1.63273e-07
1.57037e-07
6.26216e-06
6.57726e-06
2.8773e-08
6.57151e-06
-1.00659e-08
6.5882e-06
7.82467e-08
6.57156e-06
-6.90114e-08
6.56891e-06
-4.18462e-08
6.57503e-06
1.05643e-07
6.57348e-06
4.63863e-08
6.58114e-06
7.01281e-08
6.57551e-06
1.25985e-08
6.56651e-06
-4.46885e-08
6.562e-06
1.45954e-08
6.54903e-06
1.55247e-09
6.54463e-06
1.55894e-08
6.54593e-06
9.20144e-08
6.54132e-06
1.14588e-07
6.54204e-06
1.18548e-07
6.54936e-06
1.48381e-07
6.55371e-06
1.66898e-07
6.55654e-06
1.60446e-07
1.51767e-07
6.56181e-06
6.89205e-06
2.65106e-08
6.88567e-06
-3.68359e-09
6.90185e-06
6.20639e-08
6.8873e-06
-5.44581e-08
6.88354e-06
-3.80845e-08
6.89049e-06
9.86912e-08
6.88785e-06
4.90307e-08
6.89376e-06
6.42103e-08
6.88886e-06
1.74972e-08
6.87918e-06
-3.50025e-08
6.8747e-06
1.90711e-08
6.86296e-06
1.32929e-08
6.85793e-06
2.06213e-08
6.85983e-06
9.012e-08
6.85639e-06
1.18019e-07
6.85617e-06
1.18775e-07
6.86312e-06
1.4143e-07
6.86856e-06
1.61452e-07
6.87134e-06
1.57672e-07
1.47147e-07
6.87596e-06
7.22184e-06
2.38064e-08
7.21495e-06
3.20541e-09
7.23038e-06
4.66365e-08
7.21802e-06
-4.2097e-08
7.21326e-06
-3.33219e-08
7.22099e-06
9.09533e-08
7.21768e-06
5.23389e-08
7.2215e-06
6.03908e-08
7.21723e-06
2.17724e-08
7.20738e-06
-2.51504e-08
7.20268e-06
2.37639e-08
7.19199e-06
2.39841e-08
7.18653e-06
2.60853e-08
7.18873e-06
8.79192e-08
7.18656e-06
1.20188e-07
7.18567e-06
1.19662e-07
7.19188e-06
1.35221e-07
7.19823e-06
1.55102e-07
7.20133e-06
1.54575e-07
1.43175e-07
7.2053e-06
7.56733e-06
2.07061e-08
7.56008e-06
1.04481e-08
7.57447e-06
3.22517e-08
7.5644e-06
-3.20327e-08
7.55864e-06
-2.75618e-08
7.56715e-06
8.24509e-08
7.56381e-06
5.5671e-08
7.5652e-06
5.90024e-08
7.56119e-06
2.57811e-08
7.55163e-06
-1.55884e-08
7.54671e-06
2.86897e-08
7.53689e-06
3.37961e-08
7.53106e-06
3.19144e-08
7.53338e-06
8.56073e-08
7.53249e-06
1.21074e-07
7.5313e-06
1.20855e-07
7.53648e-06
1.30036e-07
7.5434e-06
1.48187e-07
7.54714e-06
1.50832e-07
1.39692e-07
7.55062e-06
7.92924e-06
1.72765e-08
7.92183e-06
1.78601e-08
7.93486e-06
1.92183e-08
7.92723e-06
-2.4398e-08
7.92046e-06
-2.07946e-08
7.92937e-06
7.35365e-08
7.92695e-06
5.81008e-08
7.92577e-06
6.01796e-08
7.92139e-06
3.01578e-08
7.91246e-06
-6.65337e-09
7.90754e-06
3.36048e-08
7.8985e-06
4.2841e-08
7.89228e-06
3.81266e-08
7.89451e-06
8.33833e-08
7.8949e-06
1.20682e-07
7.89374e-06
1.22019e-07
7.89782e-06
1.25955e-07
7.90487e-06
1.4114e-07
7.90939e-06
1.46312e-07
1.36407e-07
7.91267e-06
8.30835e-06
1.36073e-08
8.30099e-06
2.52233e-08
8.31233e-06
7.87408e-09
8.30716e-06
-1.9228e-08
8.29945e-06
-1.3084e-08
8.30819e-06
6.47944e-08
8.3074e-06
5.88986e-08
8.30392e-06
6.36522e-08
8.29862e-06
3.54648e-08
8.29049e-06
1.4748e-09
8.28594e-06
3.81509e-08
8.27761e-06
5.11729e-08
8.27103e-06
4.47015e-08
8.27294e-06
8.14766e-08
8.27452e-06
1.191e-07
8.27371e-06
1.22834e-07
8.27676e-06
1.22902e-07
8.28355e-06
1.34347e-07
8.28876e-06
1.41104e-07
1.33011e-07
8.29216e-06
8.70546e-06
9.81326e-09
8.69841e-06
3.22723e-08
8.70764e-06
-1.36108e-09
8.70487e-06
-1.64561e-08
8.69622e-06
-4.4381e-09
8.70407e-06
5.69486e-08
8.70499e-06
5.79829e-08
8.70007e-06
6.85705e-08
8.69386e-06
4.16771e-08
8.6865e-06
8.8313e-09
8.68262e-06
4.20291e-08
8.67508e-06
5.87133e-08
8.66821e-06
5.15754e-08
8.66956e-06
8.0123e-08
8.67213e-06
1.1653e-07
8.67196e-06
1.22999e-07
8.67417e-06
1.20695e-07
8.68043e-06
1.28092e-07
8.68611e-06
1.3542e-07
1.29327e-07
8.6898e-06
9.1214e-06
6.0335e-09
9.11499e-06
3.86837e-08
9.12166e-06
-8.03826e-09
9.12111e-06
-1.58996e-08
9.1112e-06
5.47502e-09
9.11677e-06
5.13693e-08
9.11886e-06
5.59023e-08
9.11481e-06
7.26151e-08
9.10822e-06
4.82721e-08
9.10138e-06
1.56659e-08
9.0983e-06
4.51077e-08
9.09175e-06
6.52651e-08
9.08472e-06
5.86065e-08
9.08533e-06
7.95166e-08
9.08857e-06
1.13282e-07
9.08929e-06
1.22284e-07
9.09091e-06
1.19072e-07
9.09644e-06
1.22565e-07
9.10238e-06
1.29476e-07
1.25323e-07
9.10639e-06
9.55707e-06
2.42282e-09
9.55163e-06
4.41269e-08
9.55552e-06
-1.19281e-08
9.55668e-06
-1.70602e-08
9.5461e-06
1.60499e-08
9.54714e-06
5.03281e-08
9.55102e-06
5.2026e-08
9.54949e-06
7.41438e-08
9.54292e-06
5.48455e-08
9.53608e-06
2.2507e-08
9.53376e-06
4.74257e-08
9.52844e-06
7.05811e-08
9.52149e-06
6.55583e-08
9.52124e-06
7.97709e-08
9.52481e-06
1.09713e-07
9.52647e-06
1.20624e-07
9.52786e-06
1.17674e-07
9.53256e-06
1.17867e-07
9.53856e-06
1.23482e-07
1.21022e-07
9.54286e-06
1.00134e-05
-8.54408e-10
1.00093e-05
4.82766e-08
1.00103e-05
-1.2931e-08
1.00127e-05
-1.94473e-08
1.00029e-05
2.57884e-08
1.00004e-05
5.28606e-08
1.00046e-05
4.77954e-08
1.00054e-05
7.34041e-08
9.999e-06
6.11952e-08
9.99172e-06
2.97873e-08
9.98984e-06
4.93047e-08
9.98596e-06
7.44635e-08
9.97945e-06
7.20639e-08
9.97835e-06
8.08726e-08
9.98188e-06
1.06186e-07
9.98437e-06
1.18135e-07
9.98589e-06
1.16151e-07
9.9898e-06
1.13964e-07
9.9956e-06
1.17673e-07
1.16423e-07
1.00002e-05
1.04914e-05
-3.63382e-09
1.04888e-05
5.0861e-08
1.04871e-05
-1.11554e-08
1.04902e-05
-2.25537e-08
1.04825e-05
3.34096e-08
1.04774e-05
5.79775e-08
1.04804e-05
4.47819e-08
1.04831e-05
7.07766e-08
1.04775e-05
6.67992e-08
1.04695e-05
3.77417e-08
1.04676e-05
5.12171e-08
1.04651e-05
7.69188e-08
1.04595e-05
7.77316e-08
1.04577e-05
8.26268e-08
1.04609e-05
1.03033e-07
1.0464e-05
1.15009e-07
1.04659e-05
1.14263e-07
1.04692e-05
1.10672e-07
1.04746e-05
1.12295e-07
1.11546e-07
1.04794e-05
1.09922e-05
-5.77713e-09
1.09913e-05
5.17494e-08
1.09871e-05
-6.95779e-09
1.09902e-05
-2.56979e-08
1.09854e-05
3.81833e-08
1.09786e-05
6.47898e-08
1.09794e-05
4.3977e-08
1.09834e-05
6.6831e-08
1.09791e-05
7.10813e-08
1.09707e-05
4.61314e-08
1.09682e-05
5.36866e-08
1.09669e-05
7.82256e-08
1.09625e-05
8.21905e-08
1.09603e-05
8.47706e-08
1.0963e-05
1.00415e-07
1.09664e-05
1.11512e-07
1.09688e-05
1.11922e-07
1.09717e-05
1.0773e-07
1.09765e-05
1.07503e-07
1.0653e-07
1.09815e-05
1.15168e-05
-7.18151e-09
1.15176e-05
5.09421e-08
1.15115e-05
-8.90336e-10
1.15138e-05
-2.79708e-08
1.15122e-05
3.97792e-08
1.15047e-05
7.22596e-08
1.15029e-05
4.58066e-08
1.15072e-05
6.24887e-08
1.15048e-05
7.35472e-08
1.14964e-05
5.44597e-08
1.14931e-05
5.70232e-08
1.14925e-05
7.88039e-08
1.14893e-05
8.53778e-08
1.14872e-05
8.68684e-08
1.14893e-05
9.83907e-08
1.14929e-05
1.079e-07
1.14956e-05
1.09154e-07
1.14985e-05
1.04902e-07
1.15027e-05
1.0327e-07
1.01614e-07
1.15076e-05
1.20664e-05
-7.79706e-09
1.20688e-05
4.8615e-08
1.20615e-05
6.34067e-09
1.2062e-05
-2.84583e-08
1.20635e-05
3.83291e-08
1.20565e-05
7.92225e-08
1.20521e-05
5.01921e-08
1.20558e-05
5.88112e-08
1.20553e-05
7.40615e-08
1.20477e-05
6.2035e-08
1.20435e-05
6.12157e-08
1.20431e-05
7.92059e-08
1.20411e-05
8.73731e-08
1.20394e-05
8.85722e-08
1.2041e-05
9.6836e-08
1.20445e-05
1.04387e-07
1.20476e-05
1.06069e-07
1.20504e-05
1.0204e-07
1.20542e-05
9.94544e-08
9.69823e-08
1.20589e-05
1.26424e-05
-7.63142e-09
1.26459e-05
4.5093e-08
1.26383e-05
1.40065e-08
1.26362e-05
-2.63649e-08
1.26401e-05
3.44415e-08
1.26349e-05
8.44168e-08
1.26285e-05
5.65927e-08
1.26305e-05
5.6757e-08
1.26316e-05
7.2956e-08
1.26255e-05
6.81505e-08
1.26208e-05
6.59718e-08
1.26201e-05
7.98713e-08
1.26191e-05
8.83894e-08
1.26179e-05
8.97401e-08
1.26192e-05
9.55133e-08
1.26225e-05
1.01103e-07
1.26258e-05
1.02794e-07
1.26288e-05
9.9081e-08
1.26323e-05
9.59096e-08
9.26685e-08
1.26366e-05
1.32461e-05
-6.75854e-09
1.32504e-05
4.07692e-08
1.32429e-05
2.15003e-08
1.32378e-05
-2.12461e-08
1.32432e-05
2.90431e-08
1.32407e-05
8.6929e-08
1.32332e-05
6.40541e-08
1.32331e-05
5.68575e-08
1.32351e-05
7.09789e-08
1.32308e-05
7.24039e-08
1.3226e-05
7.07599e-08
1.32249e-05
8.09574e-08
1.32245e-05
8.88378e-08
1.32239e-05
9.02994e-08
1.32252e-05
9.42504e-08
1.32283e-05
9.80242e-08
1.32316e-05
9.94272e-08
1.32347e-05
9.60148e-08
1.32381e-05
9.25523e-08
8.86286e-08
1.32421e-05
1.38787e-05
-5.32136e-09
1.38833e-05
3.61784e-08
1.38766e-05
2.82374e-08
1.38687e-05
-1.33792e-08
1.38742e-05
2.35911e-08
1.38748e-05
8.62739e-08
1.38674e-05
7.14572e-08
1.38651e-05
5.91399e-08
1.3867e-05
6.9077e-08
1.38646e-05
7.48165e-08
1.38605e-05
7.4897e-08
1.3859e-05
8.24204e-08
1.38588e-05
8.90653e-08
1.38588e-05
9.03125e-08
1.38601e-05
9.29388e-08
1.3863e-05
9.51082e-08
1.38664e-05
9.60244e-08
1.38696e-05
9.28433e-08
1.38728e-05
8.93342e-08
8.4829e-08
1.38766e-05
1.45419e-05
-3.51127e-09
1.4546e-05
3.20083e-08
1.45407e-05
3.36086e-08
1.45309e-05
-3.59503e-09
1.45349e-05
1.95446e-08
1.45385e-05
8.26839e-08
1.45323e-05
7.76838e-08
1.45282e-05
6.32296e-08
1.45292e-05
6.80945e-08
1.45283e-05
7.57101e-08
1.45252e-05
7.79402e-08
1.45237e-05
8.39989e-08
1.45235e-05
8.92062e-08
1.45239e-05
8.99728e-08
1.45253e-05
9.14955e-08
1.45281e-05
9.23401e-08
1.45315e-05
9.26294e-08
1.45348e-05
8.95426e-08
1.45379e-05
8.61976e-08
8.12771e-08
1.45415e-05
1.52369e-05
-1.54583e-09
1.52402e-05
2.86818e-08
1.52365e-05
3.73317e-08
1.52258e-05
7.11558e-09
1.52275e-05
1.78942e-08
1.52331e-05
7.70598e-08
1.52289e-05
8.18775e-08
1.52237e-05
6.84398e-08
1.52233e-05
6.84416e-08
1.52233e-05
7.57484e-08
1.52215e-05
7.97695e-08
1.52202e-05
8.52467e-08
1.52201e-05
8.93381e-08
1.52206e-05
8.94117e-08
1.52222e-05
8.99126e-08
1.52249e-05
8.96758e-08
1.52282e-05
8.93174e-08
1.52316e-05
8.611e-08
1.52348e-05
8.30412e-08
7.79803e-08
1.52381e-05
1.59654e-05
3.6641e-10
1.59676e-05
2.64609e-08
1.59655e-05
3.94675e-08
1.59549e-05
1.7699e-08
1.59538e-05
1.8971e-08
1.59602e-05
7.06893e-08
1.59584e-05
8.36979e-08
1.5953e-05
7.38749e-08
1.59513e-05
7.01019e-08
1.59513e-05
7.57121e-08
1.59506e-05
8.04648e-08
1.595e-05
8.58479e-08
1.595e-05
8.93587e-08
1.59507e-05
8.87093e-08
1.59524e-05
8.82518e-08
1.5955e-05
8.70412e-08
1.59582e-05
8.61397e-08
1.59617e-05
8.26381e-08
1.5965e-05
7.97448e-08
7.48853e-08
1.59681e-05
1.67289e-05
2.0746e-09
1.67299e-05
2.54562e-08
1.67291e-05
4.02886e-08
1.67195e-05
2.73236e-08
1.6716e-05
2.2466e-08
1.67217e-05
6.4899e-08
1.67222e-05
8.32736e-08
1.67174e-05
7.86203e-08
1.67147e-05
7.28461e-08
1.67143e-05
7.60934e-08
1.67144e-05
8.04066e-08
1.67145e-05
8.57105e-08
1.67149e-05
8.89935e-08
1.67156e-05
8.79231e-08
1.67174e-05
8.65428e-08
1.672e-05
8.44147e-08
1.67231e-05
8.30566e-08
1.67264e-05
7.92695e-08
1.67299e-05
7.62799e-08
7.18541e-08
1.67329e-05
1.75289e-05
3.48418e-09
1.75289e-05
2.54987e-08
1.75289e-05
4.02576e-08
1.75208e-05
3.5468e-08
1.75155e-05
2.7717e-08
1.75197e-05
6.07176e-08
1.75218e-05
8.11506e-08
1.75184e-05
8.20506e-08
1.75151e-05
7.61959e-08
1.75141e-05
7.70227e-08
1.75144e-05
8.01263e-08
1.75152e-05
8.49249e-08
1.75161e-05
8.80619e-08
1.75171e-05
8.69542e-08
1.75188e-05
8.48386e-08
1.75214e-05
8.18019e-08
1.75245e-05
7.99982e-08
1.75277e-05
7.60676e-08
1.75312e-05
7.27636e-08
6.87224e-08
1.75343e-05
1.83673e-05
4.57724e-09
1.83664e-05
2.63816e-08
1.83667e-05
3.98908e-08
1.83604e-05
4.18364e-08
1.83542e-05
3.39061e-08
1.83563e-05
5.85719e-08
1.83593e-05
7.81938e-08
1.83574e-05
8.39633e-08
1.83541e-05
7.94892e-08
1.83526e-05
7.84719e-08
1.83528e-05
7.99795e-08
1.8354e-05
8.37224e-08
1.83554e-05
8.66286e-08
1.83568e-05
8.55744e-08
1.83585e-05
8.31472e-08
1.8361e-05
7.92504e-08
1.83641e-05
7.69093e-08
1.83672e-05
7.29882e-08
1.83706e-05
6.93535e-08
6.54306e-08
1.83739e-05
1.92456e-05
5.39109e-09
1.92441e-05
2.7811e-08
1.92444e-05
3.9646e-08
1.92397e-05
4.65017e-08
1.92334e-05
4.01915e-08
1.92337e-05
5.83615e-08
1.92365e-05
7.53005e-08
1.9236e-05
8.45247e-08
1.92333e-05
8.21508e-08