/*--------------------------------*- C++ -*----------------------------------*\
| =========                 |                                                 |
| \\      /  F ield         | OpenFOAM: The Open Source CFD Toolbox           |
|  \\    /   O peration     | Version:  2506                                  |
|   \\  /    A nd           | Website:  www.openfoam.com                      |
|    \\/     M anipulation  |                                                 |
\*---------------------------------------------------------------------------*/
FoamFile
{
    version     2.0;
    format      ascii;
    arch        "LSB;label=32;scalar=64";
    class       volVectorField;
    location    "1.55";
    object      U;
}
// * * * * * * * * * * * * * * * * * * * * * * * * * * * * * * * * * * * * * //

dimensions      [0 1 -1 0 0 0 0];

internalField   nonuniform List<vector> 
9600
(
(0.854319 0.00157063 0)
(1.16377 0.00171258 0)
(0.828046 -0.00251875 0)
(1.11822 -0.00625936 0)
(0.914562 0.00605675 0)
(1.12978 0.000604875 0)
(0.798728 0.00419015 0)
(1.14421 0.00103706 0)
(0.832837 -0.00812871 0)
(1.12025 -0.000240423 0)
(0.890222 -0.00293252 0)
(1.1074 0.00338002 0)
(0.88892 -0.00177963 0)
(1.09699 0.00193341 0)
(0.882149 0.00814393 0)
(1.09018 0.000946311 0)
(0.866594 0.0110232 0)
(1.08963 0.00040853 0)
(0.836772 0.00609439 0)
(1.09155 0.00174878 0)
(0.863737 0.00135688 0)
(1.15087 0.00213533 0)
(0.843876 -0.002297 0)
(1.10558 -0.00681673 0)
(0.922229 0.00559381 0)
(1.11557 0.00239561 0)
(0.819106 0.00390563 0)
(1.12 0.000870702 0)
(0.861023 -0.00807567 0)
(1.09802 -0.000946133 0)
(0.915971 -0.00298746 0)
(1.08404 0.00355723 0)
(0.922536 -0.00173251 0)
(1.06508 0.00219887 0)
(0.926134 0.00816901 0)
(1.04158 0.00146733 0)
(0.929334 0.0110278 0)
(1.01547 0.00117475 0)
(0.935913 0.00714902 0)
(0.977501 0.0021676 0)
(0.882232 0.00119228 0)
(1.12695 0.00242055 0)
(0.871843 -0.0021462 0)
(1.08332 -0.00731802 0)
(0.937551 0.0054303 0)
(1.09117 0.00336963 0)
(0.856587 0.00359822 0)
(1.08257 0.000587074 0)
(0.904184 -0.00800786 0)
(1.06165 -0.00148919 0)
(0.951288 -0.00285672 0)
(1.04935 0.00353299 0)
(0.961564 -0.00142969 0)
(1.02597 0.00220008 0)
(0.966504 0.00856253 0)
(1.00458 0.00155904 0)
(0.967714 0.011281 0)
(0.988145 0.00114433 0)
(0.969953 0.00743284 0)
(0.970363 0.0025787 0)
(0.906867 0.00109343 0)
(1.0964 0.00258239 0)
(0.906073 -0.0019632 0)
(1.05688 -0.00768824 0)
(0.95636 0.00531449 0)
(1.06313 0.00412176 0)
(0.900024 0.00361268 0)
(1.04547 0.000159324 0)
(0.945495 -0.00785937 0)
(1.02772 -0.00199947 0)
(0.978365 -0.00272038 0)
(1.02197 0.003364 0)
(0.985023 -0.00102815 0)
(1.00182 0.00214321 0)
(0.983169 0.00892527 0)
(0.990933 0.00159439 0)
(0.978703 0.0115777 0)
(0.984917 0.00113196 0)
(0.977605 0.00785734 0)
(0.976686 0.00321327 0)
(0.933281 0.001047 0)
(1.06504 0.00265339 0)
(0.939379 -0.00175819 0)
(1.03271 -0.00797455 0)
(0.973393 0.00519739 0)
(1.03803 0.00464656 0)
(0.938233 0.00378601 0)
(1.019 -0.000296128 0)
(0.974073 -0.00769887 0)
(1.00664 -0.00237368 0)
(0.992206 -0.00266107 0)
(1.00769 0.00323223 0)
(0.994483 -0.00065127 0)
(0.992439 0.0022123 0)
(0.987078 0.00909971 0)
(0.988003 0.00177316 0)
(0.981496 0.0115849 0)
(0.98579 0.00130558 0)
(0.981112 0.0081318 0)
(0.980435 0.00385285 0)
(0.957182 0.00104354 0)
(1.03829 0.00265153 0)
(0.966293 -0.00157961 0)
(1.01519 -0.00816276 0)
(0.98525 0.00511764 0)
(1.01972 0.00495828 0)
(0.965654 0.00397618 0)
(1.00558 -0.000665592 0)
(0.989456 -0.00756916 0)
(0.997721 -0.00259039 0)
(0.997182 -0.00265371 0)
(1.00198 0.00314256 0)
(0.99747 -0.000313309 0)
(0.990381 0.00234996 0)
(0.988375 0.0092049 0)
(0.988743 0.00195207 0)
(0.983842 0.011444 0)
(0.988037 0.00154783 0)
(0.984427 0.00808779 0)
(0.983982 0.00460216 0)
(0.975712 0.0010664 0)
(1.01922 0.00260576 0)
(0.98478 -0.00144914 0)
(1.00515 -0.00824239 0)
(0.991535 0.00506674 0)
(1.00844 0.00510203 0)
(0.98256 0.00411976 0)
(1.0015 -0.000914622 0)
(0.996389 -0.00745703 0)
(0.995394 -0.00270281 0)
(0.998291 -0.00265415 0)
(0.99969 0.00305526 0)
(0.998034 -1.4342e-05 0)
(0.990756 0.002485 0)
(0.98999 0.00927069 0)
(0.9908 0.00208504 0)
(0.986776 0.0112756 0)
(0.99087 0.00179611 0)
(0.987757 0.00792016 0)
(0.987382 0.00535731 0)
(0.988048 0.00109639 0)
(1.00793 0.002544 0)
(0.995729 -0.00136841 0)
(1.00073 -0.0082304 0)
(0.993909 0.00503185 0)
(1.00231 0.00513023 0)
(0.991978 0.00419284 0)
(1.00183 -0.00106933 0)
(0.999334 -0.00733451 0)
(0.995291 -0.00275739 0)
(0.998061 -0.00263165 0)
(0.998313 0.0029599 0)
(0.997563 0.00024863 0)
(0.991463 0.00257692 0)
(0.991778 0.00928493 0)
(0.992986 0.0022077 0)
(0.989716 0.0110604 0)
(0.993443 0.00211288 0)
(0.990711 0.00770714 0)
(0.990179 0.00613413 0)
(0.995045 0.00112082 0)
(1.00249 0.00248101 0)
(1.00136 -0.00132554 0)
(0.999285 -0.00815379 0)
(0.99438 0.00501375 0)
(0.999318 0.00508382 0)
(0.996976 0.00419825 0)
(1.00334 -0.00116381 0)
(1.0007 -0.00718618 0)
(0.995545 -0.00277339 0)
(0.99743 -0.00257863 0)
(0.997145 0.00285933 0)
(0.996694 0.000482366 0)
(0.991883 0.00261247 0)
(0.993238 0.00924947 0)
(0.994721 0.00233349 0)
(0.992106 0.0107866 0)
(0.995384 0.00250409 0)
(0.993014 0.00745595 0)
(0.992273 0.00689747 0)
(0.998331 0.00113562 0)
(1.00051 0.00241973 0)
(1.00387 -0.00130223 0)
(0.998884 -0.00803635 0)
(0.994266 0.00500906 0)
(0.998158 0.00498925 0)
(0.999619 0.00415522 0)
(1.00467 -0.00122231 0)
(1.00138 -0.00701051 0)
(0.99569 -0.00275811 0)
(0.996789 -0.00249935 0)
(0.996171 0.00275869 0)
(0.995853 0.000691335 0)
(0.992058 0.00260153 0)
(0.994211 0.00916499 0)
(0.9959 0.00246682 0)
(0.993787 0.0104577 0)
(0.996686 0.00295928 0)
(0.994663 0.00717465 0)
(0.993755 0.00760911 0)
(0.999484 0.00114217 0)
(1.00018 0.00235801 0)
(1.00481 -0.00128194 0)
(0.998612 -0.00789499 0)
(0.994111 0.00500618 0)
(0.998055 0.00486496 0)
(1.00105 0.00408566 0)
(1.00549 -0.00125952 0)
(1.00168 -0.0068113 0)
(0.995697 -0.00271704 0)
(0.996319 -0.00240077 0)
(0.995496 0.00265916 0)
(0.995271 0.000879989 0)
(0.992188 0.00256127 0)
(0.994811 0.00903293 0)
(0.996652 0.00261485 0)
(0.994876 0.0100856 0)
(0.997485 0.00346033 0)
(0.995801 0.00687857 0)
(0.994776 0.00824039 0)
(0.99963 0.00114338 0)
(1.00045 0.00229326 0)
(1.00506 -0.00125449 0)
(0.998241 -0.00773979 0)
(0.994038 0.00499298 0)
(0.9985 0.00472316 0)
(1.00184 0.00400548 0)
(1.00586 -0.00128115 0)
(1.00174 -0.00659559 0)
(0.995615 -0.00265608 0)
(0.99606 -0.00229339 0)
(0.995149 0.00255938 0)
(0.994998 0.00105055 0)
(0.992398 0.00251072 0)
(0.995206 0.00885828 0)
(0.997141 0.00278436 0)
(0.995572 0.00968021 0)
(0.997941 0.00398765 0)
(0.99659 0.00660043 0)
(0.995474 0.00876059 0)
(0.999417 0.00114158 0)
(1.00084 0.00222407 0)
(1.00507 -0.00121575 0)
(0.997822 -0.00757547 0)
(0.994041 0.00496166 0)
(0.999123 0.00457106 0)
(1.0023 0.0039235 0)
(1.00593 -0.00128804 0)
(1.00169 -0.00637082 0)
(0.995502 -0.00258227 0)
(0.995975 -0.00218516 0)
(0.995064 0.00246055 0)
(0.994966 0.00120373 0)
(0.992703 0.00246453 0)
(0.995503 0.00864828 0)
(0.997476 0.00297838 0)
(0.99603 0.00925096 0)
(0.998176 0.00451912 0)
(0.997153 0.00637199 0)
(0.995961 0.0091522 0)
(0.999159 0.00113819 0)
(1.00116 0.00214983 0)
(1.00502 -0.00116549 0)
(0.997453 -0.00740356 0)
(0.994101 0.00490967 0)
(0.99969 0.00441299 0)
(1.00258 0.00384368 0)
(1.00584 -0.00128123 0)
(1.0016 -0.0061424 0)
(0.995408 -0.00249727 0)
(0.996008 -0.00208381 0)
(0.995139 0.00236649 0)
(0.995067 0.00133914 0)
(0.993056 0.00243177 0)
(0.995739 0.00840826 0)
(0.997707 0.00319401 0)
(0.996344 0.00881979 0)
(0.998271 0.00502464 0)
(0.997571 0.0062159 0)
(0.996317 0.00941276 0)
(0.998975 0.0011339 0)
(1.00135 0.00207081 0)
(1.00496 -0.00110573 0)
(0.997193 -0.00722449 0)
(0.994203 0.00483853 0)
(1.0001 0.00425217 0)
(1.00273 0.00376521 0)
(1.00566 -0.00126055 0)
(1.00151 -0.00591516 0)
(0.995362 -0.00239954 0)
(0.996112 -0.00199588 0)
(0.995283 0.00227813 0)
(0.995209 0.00145746 0)
(0.993405 0.0024154 0)
(0.99592 0.00814639 0)
(0.997857 0.0034267 0)
(0.996564 0.00840183 0)
(0.998277 0.00548648 0)
(0.997896 0.00613723 0)
(0.996601 0.00954982 0)
(0.99889 0.001129 0)
(1.00144 0.00198801 0)
(1.00489 -0.00103957 0)
(0.997057 -0.00703809 0)
(0.99434 0.0047513 0)
(1.00033 0.00409183 0)
(1.0028 0.00368447 0)
(1.00546 -0.00122558 0)
(1.00145 -0.0056935 0)
(0.995367 -0.00228778 0)
(0.996251 -0.00191958 0)
(0.995441 0.00219514 0)
(0.99534 0.00156229 0)
(0.993722 0.00241452 0)
(0.996051 0.00787267 0)
(0.997942 0.00366129 0)
(0.996727 0.00801488 0)
(0.998234 0.00590361 0)
(0.998161 0.00612753 0)
(0.996851 0.00959095 0)
(0.998881 0.00112348 0)
(1.00145 0.00190271 0)
(1.0048 -0.000970019 0)
(0.997024 -0.00684405 0)
(0.994502 0.00465098 0)
(1.00043 0.00393495 0)
(1.00279 0.00359708 0)
(1.00525 -0.00117611 0)
(1.00142 -0.0054807 0)
(0.995415 -0.00216058 0)
(0.996404 -0.00185608 0)
(0.995588 0.0021226 0)
(0.995439 0.00165237 0)
(0.994002 0.00242955 0)
(0.996146 0.00759479 0)
(0.997985 0.00388407 0)
(0.996859 0.007671 0)
(0.998169 0.00626791 0)
(0.998386 0.00616777 0)
(0.997093 0.00956378 0)
(0.998916 0.00111722 0)
(1.00142 0.00181602 0)
(1.00469 -0.000899368 0)
(0.997066 -0.00664254 0)
(0.99468 0.00454023 0)
(1.00046 0.00378373 0)
(1.00272 0.00350073 0)
(1.00504 -0.00111325 0)
(1.00141 -0.00527952 0)
(0.995492 -0.00201822 0)
(0.996557 -0.0018028 0)
(0.995725 0.00205736 0)
(0.995506 0.00173363 0)
(0.994257 0.00245161 0)
(0.99622 0.00732921 0)
(0.998007 0.00408309 0)
(0.996981 0.00736899 0)
(0.998104 0.00657694 0)
(0.998584 0.00623709 0)
(0.997341 0.00947703 0)
(0.998962 0.0011101 0)
(1.00139 0.00172874 0)
(1.00456 -0.000829316 0)
(0.997154 -0.00643348 0)
(0.994861 0.00441981 0)
(1.00047 0.00364075 0)
(1.00262 0.00339238 0)
(1.00484 -0.00103521 0)
(1.0014 -0.00509309 0)
(0.995589 -0.00186149 0)
(0.996703 -0.00175474 0)
(0.99586 0.00199486 0)
(0.99555 0.00181208 0)
(0.9945 0.00247089 0)
(0.996288 0.00708176 0)
(0.998023 0.00426088 0)
(0.997105 0.00710378 0)
(0.998052 0.00684106 0)
(0.998762 0.00632521 0)
(0.997602 0.0093409 0)
(0.999001 0.00110186 0)
(1.00137 0.00164166 0)
(1.00441 -0.000761349 0)
(0.997275 -0.00621601 0)
(0.995037 0.00428933 0)
(1.00047 0.00350809 0)
(1.0025 0.00326936 0)
(1.00465 -0.000940645 0)
(1.00138 -0.00492027 0)
(0.995699 -0.00169256 0)
(0.996838 -0.00170751 0)
(0.996 0.00193305 0)
(0.99558 0.0018945 0)
(0.994738 0.00247776 0)
(0.996359 0.00685588 0)
(0.998041 0.00442687 0)
(0.997238 0.00686236 0)
(0.99802 0.00706902 0)
(0.998921 0.00642969 0)
(0.997876 0.00916538 0)
(0.99902 0.00109221 0)
(1.00138 0.00155546 0)
(1.00423 -0.000696539 0)
(0.997417 -0.00598932 0)
(0.9952 0.00414827 0)
(1.00049 0.00338683 0)
(1.00236 0.00313299 0)
(1.00447 -0.000832223 0)
(1.00137 -0.00475829 0)
(0.995819 -0.00151466 0)
(0.996961 -0.00165936 0)
(0.996151 0.00186487 0)
(0.995602 0.0019889 0)
(0.994978 0.00246879 0)
(0.996441 0.00665202 0)
(0.998062 0.0045842 0)
(0.997383 0.00663184 0)
(0.998011 0.00726353 0)
(0.99906 0.0065555 0)
(0.998161 0.00895953 0)
(0.999017 0.00108106 0)
(1.0014 0.00147039 0)
(1.00404 -0.000635366 0)
(0.997577 -0.00575356 0)
(0.995351 0.00399641 0)
(1.00052 0.0032787 0)
(1.00221 0.00298265 0)
(1.00429 -0.000711012 0)
(1.00134 -0.00460735 0)
(0.995946 -0.0013271 0)
(0.997073 -0.00160352 0)
(0.996312 0.00178174 0)
(0.995623 0.00210216 0)
(0.995216 0.00244736 0)
(0.996536 0.00646002 0)
(0.998085 0.00474217 0)
(0.99754 0.00640989 0)
(0.998028 0.00741643 0)
(0.999177 0.00670717 0)
(0.998453 0.00873646 0)
(0.998995 0.00106809 0)
(1.00144 0.0013874 0)
(1.00385 -0.000579438 0)
(0.997746 -0.00550665 0)
(0.995494 0.00383154 0)
(1.00056 0.00318585 0)
(1.00207 0.00281632 0)
(1.00412 -0.000574883 0)
(1.00132 -0.00446673 0)
(0.996078 -0.00113851 0)
(0.997177 -0.00153299 0)
(0.996483 0.00167543 0)
(0.995645 0.00223414 0)
(0.99545 0.00242165 0)
(0.99665 0.00626933 0)
(0.998108 0.00490781 0)
(0.997707 0.00620486 0)
(0.998074 0.00751442 0)
(0.999273 0.00688254 0)
(0.998743 0.00850875 0)
(0.998962 0.00105322 0)
(1.00148 0.00130678 0)
(1.00365 -0.000529642 0)
(0.997917 -0.005248 0)
(0.995638 0.00365411 0)
(1.00059 0.00310663 0)
(1.00194 0.00263927 0)
(1.00393 -0.000430996 0)
(1.00129 -0.00432843 0)
(0.996211 -0.00096059 0)
(0.997277 -0.00143838 0)
(0.99666 0.00154621 0)
(0.995674 0.0023779 0)
(0.995674 0.00239862 0)
(0.996785 0.0060683 0)
(0.998131 0.00508656 0)
(0.997881 0.00602979 0)
(0.998151 0.00754596 0)
(0.999351 0.00707283 0)
(0.999025 0.00829016 0)
(0.998929 0.00103631 0)
(1.00152 0.0012293 0)
(1.00345 -0.000487203 0)
(0.998081 -0.00497841 0)
(0.995789 0.00346456 0)
(1.00061 0.00303852 0)
(1.00183 0.00245429 0)
(1.00375 -0.000282464 0)
(1.00128 -0.00418945 0)
(0.996344 -0.00079439 0)
(0.997374 -0.00131254 0)
(0.996842 0.00139753 0)
(0.995712 0.00252574 0)
(0.995884 0.00239249 0)
(0.996944 0.0058518 0)
(0.998154 0.00527369 0)
(0.998053 0.00589323 0)
(0.998258 0.00750785 0)
(0.999416 0.00726517 0)
(0.999288 0.00809749 0)
(0.998905 0.00101716 0)
(1.00155 0.0011564 0)
(1.00327 -0.000454192 0)
(0.998232 -0.00469638 0)
(0.995955 0.0032615 0)
(1.00061 0.00298211 0)
(1.00173 0.00226235 0)
(1.00355 -0.000131602 0)
(1.00127 -0.00404489 0)
(0.996478 -0.000650558 0)
(0.99747 -0.00115398 0)
(0.997031 0.00123669 0)
(0.995764 0.00266756 0)
(0.996078 0.00241912 0)
(0.997125 0.00562055 0)
(0.998183 0.00545707 0)
(0.99822 0.00580128 0)
(0.998396 0.00740756 0)
(0.999475 0.00744177 0)
(0.999525 0.00794962 0)
(0.998895 0.000995527 0)
(1.00155 0.00108858 0)
(1.0031 -0.00043226 0)
(0.998368 -0.00440166 0)
(0.996135 0.00304886 0)
(1.0006 0.00293517 0)
(1.00163 0.00206798 0)
(1.00335 1.02117e-05 0)
(1.00127 -0.00388314 0)
(0.996614 -0.000537404 0)
(0.997563 -0.000966077 0)
(0.997225 0.00107053 0)
(0.995833 0.00279324 0)
(0.996255 0.00247924 0)
(0.997328 0.00537469 0)
(0.998222 0.00562521 0)
(0.998373 0.00576174 0)
(0.998559 0.00725909 0)
(0.999538 0.0075798 0)
(0.999727 0.00786444 0)
(0.998902 0.000971102 0)
(1.00154 0.00102745 0)
(1.00295 -0.000421964 0)
(0.99849 -0.00409438 0)
(0.996329 0.00282835 0)
(1.00057 0.0028943 0)
(1.00155 0.00187488 0)
(1.00316 0.000139582 0)
(1.00126 -0.00369767 0)
(0.996754 -0.000456869 0)
(0.997653 -0.000755171 0)
(0.997426 0.000913776 0)
(0.995921 0.00289071 0)
(0.996417 0.00257549 0)
(0.99755 0.00512493 0)
(0.998279 0.00576132 0)
(0.998511 0.00577259 0)
(0.998743 0.00707793 0)
(0.999616 0.00765387 0)
(0.999892 0.00785412 0)
(0.998924 0.000943863 0)
(1.00152 0.000974349 0)
(1.00281 -0.000421933 0)
(0.9986 -0.0037772 0)
(0.996532 0.00260332 0)
(1.00054 0.00285609 0)
(1.00147 0.00169362 0)
(1.00296 0.000249318 0)
(1.00126 -0.00348534 0)
(0.9969 -0.000398967 0)
(0.997739 -0.000523094 0)
(0.997634 0.000781998 0)
(0.996031 0.0029595 0)
(0.996565 0.00270874 0)
(0.997785 0.00488416 0)
(0.998359 0.00585353 0)
(0.998631 0.00583061 0)
(0.998938 0.00688857 0)
(0.999721 0.00764051 0)
(1.00002 0.00789418 0)
(0.998957 0.000913303 0)
(1.00149 0.000930094 0)
(1.00269 -0.000436349 0)
(0.998701 -0.00345206 0)
(0.996739 0.00237711 0)
(1.00051 0.00281476 0)
(1.00139 0.00152985 0)
(1.00277 0.000330712 0)
(1.00126 -0.00324868 0)
(0.997053 -0.000362277 0)
(0.997819 -0.000286902 0)
(0.997845 0.000681137 0)
(0.996166 0.0030036 0)
(0.996702 0.00287178 0)
(0.998028 0.00466357 0)
(0.998468 0.00589434 0)
(0.998736 0.00592309 0)
(0.999132 0.00671769 0)
(0.999858 0.00754272 0)
(1.00014 0.00793513 0)
(0.998998 0.000878805 0)
(1.00145 0.000894999 0)
(1.00257 -0.000465246 0)
(0.998795 -0.00312375 0)
(0.996946 0.0021525 0)
(1.00048 0.00276426 0)
(1.00131 0.00138889 0)
(1.00259 0.000378184 0)
(1.00125 -0.00299601 0)
(0.997213 -0.000342784 0)
(0.997895 -5.32711e-05 0)
(0.998059 0.000609323 0)
(0.996327 0.00302448 0)
(0.99683 0.00305728 0)
(0.998272 0.00447503 0)
(0.99861 0.00588121 0)
(0.998831 0.00602944 0)
(0.999313 0.00658268 0)
(1.00002 0.00738408 0)
(1.00026 0.00792355 0)
(0.999044 0.000840992 0)
(1.00141 0.000868051 0)
(1.00246 -0.00050738 0)
(0.998885 -0.00279309 0)
(0.99715 0.00193859 0)
(1.00045 0.00270081 0)
(1.00123 0.00127985 0)
(1.00241 0.000396127 0)
(1.00125 -0.00273233 0)
(0.99738 -0.000323096 0)
(0.997969 0.000166751 0)
(0.998273 0.000570322 0)
(0.996514 0.00302546 0)
(0.996953 0.00325248 0)
(0.998512 0.00431897 0)
(0.998783 0.005815 0)
(0.998924 0.00612972 0)
(0.999474 0.00649232 0)
(1.00021 0.00720208 0)
(1.00041 0.00783398 0)
(0.999091 0.000798744 0)
(1.00137 0.000853733 0)
(1.00236 -0.00056077 0)
(0.998972 -0.00246711 0)
(0.99735 0.00174114 0)
(1.00043 0.00261622 0)
(1.00115 0.00120476 0)
(1.00225 0.000390762 0)
(1.00124 -0.00246681 0)
(0.997553 -0.000291965 0)
(0.998042 0.00037028 0)
(0.998484 0.000566408 0)
(0.996727 0.00301382 0)
(0.997073 0.00345228 0)
(0.998741 0.00419662 0)
(0.998987 0.00570167 0)
(0.999024 0.00620727 0)
(0.999613 0.00643789 0)
(1.0004 0.00702874 0)
(1.00058 0.00767759 0)
(0.999139 0.000752344 0)
(1.00132 0.00085069 0)
(1.00226 -0.000622121 0)
(0.999057 -0.00215506 0)
(0.997543 0.00156784 0)
(1.00042 0.00250536 0)
(1.00107 0.00116201 0)
(1.00209 0.000368589 0)
(1.00123 -0.00221282 0)
(0.997732 -0.000246593 0)
(0.998116 0.000567859 0)
(0.998692 0.000589187 0)
(0.996966 0.00299225 0)
(0.997192 0.00365346 0)
(0.998953 0.00410998 0)
(0.999218 0.00554605 0)
(0.999138 0.00625505 0)
(0.999733 0.00640497 0)
(1.00058 0.00687566 0)
(1.00078 0.00748656 0)
(0.999188 0.000702378 0)
(1.00127 0.000856599 0)
(1.00218 -0.000689955 0)
(0.999141 -0.00186259 0)
(0.997728 0.00142541 0)
(1.00041 0.00237098 0)
(1.00099 0.0011457 0)
(1.00194 0.000344492 0)
(1.00123 -0.00197381 0)
(0.997919 -0.000190156 0)
(0.998191 0.000761204 0)
(0.998896 0.000641758 0)
(0.997231 0.00295779 0)
(0.997313 0.00384232 0)
(0.999142 0.00406206 0)
(0.999471 0.00535525 0)
(0.999273 0.00626966 0)
(0.999838 0.00638873 0)
(1.00075 0.00673755 0)
(1.001 0.00729279 0)
(0.999236 0.000648485 0)
(1.00122 0.000872536 0)
(1.00209 -0.000759276 0)
(0.999225 -0.00159906 0)
(0.997905 0.00131607 0)
(1.00041 0.00221634 0)
(1.00091 0.00114917 0)
(1.00179 0.000329919 0)
(1.00123 -0.00175516 0)
(0.998113 -0.000117993 0)
(0.99827 0.00095327 0)
(0.999092 0.000724147 0)
(0.997521 0.00290636 0)
(0.997441 0.00400551 0)
(0.999305 0.00405683 0)
(0.999741 0.00514293 0)
(0.999436 0.00623944 0)
(0.999931 0.00638887 0)
(1.00091 0.00660627 0)
(1.00121 0.00710908 0)
(0.999284 0.000591781 0)
(1.00116 0.000894839 0)
(1.00201 -0.000824095 0)
(0.999311 -0.00137067 0)
(0.998073 0.00124063 0)
(1.00041 0.0020517 0)
(1.00084 0.00116198 0)
(1.00165 0.000335696 0)
(1.00124 -0.00155642 0)
(0.998315 -2.934e-05 0)
(0.998353 0.00114455 0)
(0.999277 0.000827276 0)
(0.997831 0.00283292 0)
(0.997582 0.00412998 0)
(0.999439 0.0040903 0)
(1.00002 0.00492766 0)
(0.999634 0.00615303 0)
(1.00002 0.00639997 0)
(1.00104 0.00648502 0)
(1.00142 0.00692915 0)
(0.999331 0.000532162 0)
(1.0011 0.000922813 0)
(1.00194 -0.000882443 0)
(0.999399 -0.00118144 0)
(0.998231 0.00119435 0)
(1.00041 0.00188343 0)
(1.00077 0.0011773 0)
(1.00152 0.000371929 0)
(1.00125 -0.00136388 0)
(0.998527 6.70197e-05 0)
(0.998441 0.00133894 0)
(0.999447 0.000949478 0)
(0.998158 0.00273257 0)
(0.997743 0.00420398 0)
(0.999547 0.00415734 0)
(1.00029 0.00473199 0)
(0.99987 0.00600953 0)
(1.00011 0.00640894 0)
(1.00115 0.00638594 0)
(1.00163 0.00674087 0)
(0.999378 0.000471462 0)
(1.00103 0.000952635 0)
(1.00186 -0.000932557 0)
(0.999491 -0.00103088 0)
(0.99838 0.00117246 0)
(1.00041 0.00171741 0)
(1.00071 0.00118994 0)
(1.00138 0.00043899 0)
(1.00126 -0.00116889 0)
(0.99875 0.000150745 0)
(0.998534 0.00152751 0)
(0.999596 0.0010938 0)
(0.998493 0.00261879 0)
(0.997931 0.0042264 0)
(0.999633 0.00424904 0)
(1.00055 0.00457381 0)
(1.00014 0.00581606 0)
(1.00021 0.00639633 0)
(1.00124 0.00632263 0)
(1.00181 0.00655042 0)
(0.999425 0.000410027 0)
(1.00096 0.000980971 0)
(1.00179 -0.000965244 0)
(0.999586 -0.000922572 0)
(0.998519 0.00116785 0)
(1.00042 0.00155981 0)
(1.00066 0.00119508 0)
(1.00126 0.000535338 0)
(1.00127 -0.000965399 0)
(0.998983 0.000219079 0)
(0.998638 0.00169594 0)
(0.999724 0.00125967 0)
(0.99883 0.00251258 0)
(0.998151 0.00419799 0)
(0.999706 0.0043452 0)
(1.00077 0.00446345 0)
(1.00044 0.00559243 0)
(1.00035 0.00634252 0)
(1.0013 0.00629506 0)
(1.00198 0.0063803 0)
(0.99947 0.000348828 0)
(1.00088 0.00100676 0)
(1.00171 -0.000979276 0)
(0.999684 -0.000848395 0)
(0.99865 0.0011705 0)
(1.00042 0.00141563 0)
(1.00062 0.00119053 0)
(1.00114 0.000657019 0)
(1.00128 -0.000748008 0)
(0.999222 0.000277516 0)
(0.998756 0.00183581 0)
(0.99983 0.00144681 0)
(0.99916 0.00243199 0)
(0.998402 0.00412378 0)
(0.999776 0.00442313 0)
(1.00097 0.00439781 0)
(1.00076 0.00536197 0)
(1.00052 0.00623405 0)
(1.00135 0.00627825 0)
(1.00211 0.00624788 0)
(0.999514 0.000290125 0)
(1.00081 0.00102647 0)
(1.00163 -0.000970515 0)
(0.999785 -0.000807782 0)
(0.998775 0.00117515 0)
(1.00042 0.0012913 0)
(1.0006 0.00116751 0)
(1.00102 0.000799176 0)
(1.00128 -0.000512007 0)
(0.999463 0.000327387 0)
(0.998891 0.00193778 0)
(0.999921 0.00164395 0)
(0.999473 0.00238516 0)
(0.998679 0.00401826 0)
(0.999854 0.00447383 0)
(1.00113 0.00436671 0)
(1.00108 0.00514413 0)
(1.00074 0.00607648 0)
(1.00141 0.00624479 0)
(1.0022 0.00615611 0)
(0.999556 0.000234482 0)
(1.00073 0.00103527 0)
(1.00154 -0.000933904 0)
(0.999888 -0.00079815 0)
(0.998895 0.00117293 0)
(1.00042 0.00119625 0)
(1.00059 0.00111933 0)
(1.00092 0.000949242 0)
(1.00127 -0.000246056 0)
(0.999699 0.000382522 0)
(0.999045 0.0020021 0)
(1 0.00183729 0)
(0.999764 0.00237147 0)
(0.998978 0.00389262 0)
(0.999946 0.00449361 0)
(1.00126 0.00435801 0)
(1.00138 0.00494733 0)
(1.00099 0.00588545 0)
(1.00148 0.00618129 0)
(1.00226 0.00609028 0)
(0.999597 0.000183972 0)
(1.00064 0.0010334 0)
(1.00145 -0.000871878 0)
(0.99999 -0.00080896 0)
(0.999013 0.00115665 0)
(1.00041 0.0011293 0)
(1.00059 0.00105249 0)
(1.00084 0.00109434 0)
(1.00124 3.98241e-05 0)
(0.999924 0.00045075 0)
(0.999218 0.00202891 0)
(1.00007 0.00201102 0)
(1.00003 0.00239135 0)
(0.999289 0.00376342 0)
(1.00006 0.00448528 0)
(1.00137 0.0043653 0)
(1.00167 0.00477314 0)
(1.00127 0.00566907 0)
(1.00159 0.00608203 0)
(1.0023 0.0060263 0)
(0.999636 0.000138969 0)
(1.00056 0.00101694 0)
(1.00135 -0.00078126 0)
(1.00009 -0.000836243 0)
(0.999133 0.0011347 0)
(1.0004 0.00109581 0)
(1.00061 0.000984648 0)
(1.00078 0.00120334 0)
(1.00121 0.000336016 0)
(1.00013 0.000548433 0)
(0.999406 0.00203105 0)
(1.00015 0.00215477 0)
(1.00027 0.0024357 0)
(0.999605 0.00364107 0)
(1.00019 0.00444586 0)
(1.00145 0.00437939 0)
(1.00193 0.00462805 0)
(1.00157 0.00543667 0)
(1.00173 0.00595034 0)
(1.00235 0.00595164 0)
(0.999672 0.000102009 0)
(1.00049 0.000982726 0)
(1.00124 -0.000666341 0)
(1.00019 -0.000864521 0)
(0.999256 0.00109554 0)
(1.00038 0.00110724 0)
(1.00063 0.000930544 0)
(1.00074 0.00125535 0)
(1.00117 0.000617557 0)
(1.00031 0.000677672 0)
(0.999602 0.00202568 0)
(1.00024 0.0022665 0)
(1.00048 0.00249121 0)
(0.999919 0.00353141 0)
(1.00035 0.00437946 0)
(1.00153 0.00439019 0)
(1.00214 0.00451832 0)
(1.00188 0.00519846 0)
(1.0019 0.00578433 0)
(1.0024 0.00585709 0)
(0.999707 7.31963e-05 0)
(1.00041 0.000931478 0)
(1.00113 -0.000533449 0)
(1.00027 -0.00088161 0)
(0.999386 0.00102954 0)
(1.00035 0.0011569 0)
(1.00064 0.00090261 0)
(1.00073 0.00125714 0)
(1.00114 0.000855647 0)
(1.00047 0.000821238 0)
(0.9998 0.00201845 0)
(1.00033 0.00234482 0)
(1.00067 0.00254407 0)
(1.00022 0.00343165 0)
(1.00053 0.00429438 0)
(1.00159 0.00439092 0)
(1.00232 0.00444515 0)
(1.00218 0.00497269 0)
(1.00211 0.00558625 0)
(1.00247 0.00573828 0)
(0.999739 5.27084e-05 0)
(1.00035 0.000863611 0)
(1.00101 -0.000390159 0)
(1.00035 -0.000874379 0)
(0.999526 0.00093785 0)
(1.00033 0.00122492 0)
(1.00065 0.000914822 0)
(1.00073 0.00122547 0)
(1.00111 0.00104489 0)
(1.0006 0.000975149 0)
(0.999993 0.00202538 0)
(1.00042 0.00240594 0)
(1.00085 0.00259304 0)
(1.00052 0.00333897 0)
(1.00073 0.00419082 0)
(1.00166 0.00437226 0)
(1.00246 0.00439654 0)
(1.00246 0.00477472 0)
(1.00234 0.00536626 0)
(1.00256 0.00559475 0)
(0.999768 4.14531e-05 0)
(1.00029 0.00078053 0)
(1.00089 -0.000246069 0)
(1.00041 -0.00083053 0)
(0.999675 0.000821871 0)
(1.00032 0.00128297 0)
(1.00065 0.000975486 0)
(1.00074 0.00119321 0)
(1.0011 0.001177 0)
(1.00073 0.00112372 0)
(1.00018 0.00204842 0)
(1.00052 0.00245524 0)
(1.001 0.0026371 0)
(1.0008 0.00325579 0)
(1.00094 0.00407544 0)
(1.00174 0.00433339 0)
(1.00257 0.00436315 0)
(1.0027 0.00461318 0)
(1.00258 0.00514146 0)
(1.00268 0.00543007 0)
(0.999795 3.7398e-05 0)
(1.00024 0.000687346 0)
(1.00078 -0.000108575 0)
(1.00046 -0.000750275 0)
(0.99983 0.000693688 0)
(1.00032 0.00131501 0)
(1.00063 0.00106896 0)
(1.00076 0.00117598 0)
(1.00111 0.00126142 0)
(1.00084 0.00125665 0)
(1.00036 0.00208326 0)
(1.00063 0.00249738 0)
(1.00114 0.00267705 0)
(1.00106 0.0031771 0)
(1.00116 0.00394881 0)
(1.00184 0.00426777 0)
(1.00265 0.0043312 0)
(1.0029 0.00448584 0)
(1.00283 0.00492655 0)
(1.00282 0.00525256 0)
(0.999819 4.12843e-05 0)
(1.0002 0.000589962 0)
(1.00067 1.21912e-05 0)
(1.00049 -0.000635116 0)
(0.999985 0.000564066 0)
(1.00034 0.00130979 0)
(1.00061 0.00118218 0)
(1.00077 0.0011887 0)
(1.00113 0.00131796 0)
(1.00095 0.00135942 0)
(1.00053 0.00211854 0)
(1.00073 0.00254054 0)
(1.00126 0.00272099 0)
(1.00129 0.0031078 0)
(1.00139 0.00381533 0)
(1.00196 0.00417502 0)
(1.00273 0.0042865 0)
(1.00307 0.00438532 0)
(1.00306 0.00472688 0)
(1.00298 0.0050646 0)
(0.999841 4.96927e-05 0)
(1.00018 0.000496848 0)
(1.00058 0.000110907 0)
(1.0005 -0.00049325 0)
(1.00014 0.000453057 0)
(1.00038 0.00125884 0)
(1.0006 0.00129642 0)
(1.00077 0.00124209 0)
(1.00115 0.00136701 0)
(1.00106 0.00142679 0)
(1.0007 0.00213981 0)
(1.00084 0.00257603 0)
(1.00136 0.00276661 0)
(1.0015 0.00305356 0)
(1.00162 0.00367984 0)
(1.0021 0.00406153 0)
(1.0028 0.00422086 0)
(1.0032 0.00430253 0)
(1.00327 0.00454895 0)
(1.00315 0.00486941 0)
(0.999861 6.07664e-05 0)
(1.00016 0.000413484 0)
(1.0005 0.000187582 0)
(1.0005 -0.000336123 0)
(1.00027 0.000377038 0)
(1.00045 0.00117052 0)
(1.00059 0.00138881 0)
(1.00077 0.00132597 0)
(1.00117 0.00141963 0)
(1.00118 0.00147334 0)
(1.00087 0.0021464 0)
(1.00095 0.00259784 0)
(1.00145 0.00281281 0)
(1.00168 0.00301773 0)
(1.00184 0.00354818 0)
(1.00225 0.00393055 0)
(1.00289 0.00412872 0)
(1.00331 0.00421863 0)
(1.00345 0.0043942 0)
(1.00332 0.00467146 0)
(0.999879 7.37675e-05 0)
(1.00014 0.000342701 0)
(1.00044 0.000240054 0)
(1.00049 -0.000173615 0)
(1.00039 0.000343572 0)
(1.00054 0.00106199 0)
(1.00061 0.00144812 0)
(1.00076 0.00142488 0)
(1.00118 0.00148646 0)
(1.00128 0.00150863 0)
(1.00105 0.0021302 0)
(1.00107 0.00259963 0)
(1.00153 0.00285276 0)
(1.00183 0.00300183 0)
(1.00204 0.00343514 0)
(1.00241 0.00379123 0)
(1.00298 0.00401566 0)
(1.0034 0.0041213 0)
(1.00359 0.00425707 0)
(1.00349 0.00447559 0)
(0.999896 8.58244e-05 0)
(1.00014 0.000290611 0)
(1.0004 0.000269973 0)
(1.00047 -1.63786e-05 0)
(1.00049 0.00035652 0)
(1.00064 0.00094895 0)
(1.00065 0.00145986 0)
(1.00076 0.00152096 0)
(1.00118 0.0015768 0)
(1.00137 0.0015478 0)
(1.00123 0.00209494 0)
(1.00122 0.00257604 0)
(1.00161 0.00287427 0)
(1.00195 0.00299458 0)
(1.00222 0.0033437 0)
(1.00257 0.00365261 0)
(1.00309 0.0038867 0)
(1.00349 0.00400954 0)
(1.00371 0.00413054 0)
(1.00365 0.00429082 0)
(0.999911 9.59028e-05 0)
(1.00013 0.000259452 0)
(1.00038 0.000283726 0)
(1.00046 0.000126274 0)
(1.00057 0.000409105 0)
(1.00074 0.000853762 0)
(1.00072 0.00142403 0)
(1.00077 0.00159738 0)
(1.00117 0.00167802 0)
(1.00145 0.00160126 0)
(1.0014 0.00205904 0)
(1.00137 0.00252536 0)
(1.0017 0.00287452 0)
(1.00206 0.00298816 0)
(1.00236 0.00327068 0)
(1.00271 0.00352755 0)
(1.0032 0.00374726 0)
(1.00358 0.00388157 0)
(1.00381 0.00400376 0)
(1.0038 0.00411665 0)
(0.999925 0.000103337 0)
(1.00013 0.000247125 0)
(1.00037 0.00028861 0)
(1.00046 0.000244384 0)
(1.00063 0.000485542 0)
(1.00083 0.000790481 0)
(1.00081 0.00135923 0)
(1.00081 0.00164294 0)
(1.00117 0.00177762 0)
(1.0015 0.00166831 0)
(1.00155 0.00203394 0)
(1.00154 0.00245186 0)
(1.0018 0.00284507 0)
(1.00215 0.00297517 0)
(1.00249 0.00320857 0)
(1.00284 0.00342159 0)
(1.00331 0.00361348 0)
(1.00368 0.00374054 0)
(1.0039 0.00387229 0)
(1.00392 0.00395374 0)
(0.999938 0.000107847 0)
(1.00013 0.000250402 0)
(1.00037 0.000291232 0)
(1.00047 0.000332541 0)
(1.00067 0.000572468 0)
(1.00091 0.000764769 0)
(1.00092 0.00128691 0)
(1.00087 0.00164734 0)
(1.00116 0.00186673 0)
(1.00154 0.00175004 0)
(1.00168 0.00202503 0)
(1.0017 0.00237708 0)
(1.00192 0.00278203 0)
(1.00224 0.00294496 0)
(1.0026 0.00314939 0)
(1.00296 0.00332407 0)
(1.00341 0.00349419 0)
(1.00378 0.00359515 0)
(1.00398 0.00373051 0)
(1.00401 0.00380096 0)
(0.999949 0.00010997 0)
(1.00012 0.000264049 0)
(1.00037 0.000296416 0)
(1.00048 0.000393056 0)
(1.0007 0.00065948 0)
(1.00098 0.000779036 0)
(1.00103 0.0012251 0)
(1.00096 0.00161316 0)
(1.00118 0.00192694 0)
(1.00156 0.00183915 0)
(1.00179 0.00203182 0)
(1.00186 0.002313 0)
(1.00205 0.0027003 0)
(1.00234 0.00288969 0)
(1.0027 0.00308918 0)
(1.00306 0.00322896 0)
(1.00349 0.00338337 0)
(1.00386 0.00345921 0)
(1.00407 0.00357812 0)
(1.0041 0.0036514 0)
(0.99996 0.000110654 0)
(1.00012 0.0002824 0)
(1.00038 0.000309364 0)
(1.0005 0.000430365 0)
(1.00073 0.000735306 0)
(1.00102 0.000821673 0)
(1.00113 0.00118601 0)
(1.00106 0.0015611 0)
(1.00122 0.00195074 0)
(1.00157 0.00191948 0)
(1.00187 0.00205869 0)
(1.002 0.00225877 0)
(1.00219 0.0026148 0)
(1.00245 0.00281023 0)
(1.00279 0.00301616 0)
(1.00315 0.00313656 0)
(1.00356 0.00327107 0)
(1.00393 0.00333535 0)
(1.00414 0.00342665 0)
(1.00417 0.00349827 0)
(0.99997 0.000110848 0)
(1.00011 0.000300832 0)
(1.00039 0.000331341 0)
(1.00053 0.000454973 0)
(1.00076 0.00079391 0)
(1.00105 0.000878306 0)
(1.00122 0.00117453 0)
(1.00118 0.0015059 0)
(1.00128 0.00194151 0)
(1.00159 0.00197749 0)
(1.00192 0.00210101 0)
(1.00212 0.0022224 0)
(1.00231 0.00253124 0)
(1.00256 0.00272024 0)
(1.00288 0.00292455 0)
(1.00322 0.00304157 0)
(1.00362 0.00315711 0)
(1.00398 0.0032111 0)
(1.0042 0.00328379 0)
(1.00423 0.00333887 0)
(0.999978 0.000111939 0)
(1.00011 0.000315935 0)
(1.00039 0.000361108 0)
(1.00057 0.000475003 0)
(1.0008 0.000833309 0)
(1.00108 0.000937571 0)
(1.00129 0.00119197 0)
(1.0013 0.00145938 0)
(1.00136 0.00190637 0)
(1.00162 0.00200742 0)