/*--------------------------------*- C++ -*----------------------------------*\
| =========                 |                                                 |
| \\      /  F ield         | OpenFOAM: The Open Source CFD Toolbox           |
|  \\    /   O peration     | Version:  2506                                  |
|   \\  /    A nd           | Website:  www.openfoam.com                      |
|    \\/     M anipulation  |                                                 |
\*---------------------------------------------------------------------------*/
FoamFile
{
    version     2.0;
    format      ascii;
    arch        "LSB;label=32;scalar=64";
    class       surfaceScalarField;
    location    "9.25";
    object      phi;
}
// * * * * * * * * * * * * * * * * * * * * * * * * * * * * * * * * * * * * * //

dimensions      [0 3 -1 0 0 0 0];

oriented        oriented;

internalField   nonuniform List<scalar> 
19000
(
1.1523e-06
-5.97458e-07
1.25666e-06
-6.5301e-07
1.28199e-06
-4.29612e-07
1.16746e-06
1.75946e-06
1.09633e-06
3.30399e-07
1.14023e-06
-1.43615e-06
1.21415e-06
-2.26419e-06
1.23638e-06
-9.38859e-07
1.23924e-06
-4.13235e-07
1.20989e-06
4.02389e-07
1.22549e-06
5.05693e-08
1.19396e-06
1.27638e-07
1.18298e-06
-1.26668e-08
1.1904e-06
7.36925e-10
1.18891e-06
-2.62722e-07
1.20015e-06
-3.09303e-08
1.19518e-06
-1.11705e-07
1.18863e-06
2.82585e-08
1.1824e-06
3.15316e-08
8.91707e-08
1.15585e-06
1.20909e-06
-5.82287e-07
1.31435e-06
-7.58265e-07
1.33929e-06
-4.54553e-07
1.27097e-06
1.82777e-06
1.17775e-06
4.2362e-07
1.19342e-06
-1.45182e-06
1.27197e-06
-2.34273e-06
1.2953e-06
-9.62191e-07
1.30154e-06
-4.19471e-07
1.28197e-06
4.2196e-07
1.29421e-06
3.83245e-08
1.27466e-06
1.47194e-07
1.25227e-06
9.71811e-09
1.26974e-06
-1.67342e-08
1.25747e-06
-2.5045e-07
1.27809e-06
-5.15496e-08
1.25639e-06
-9.00018e-08
1.26695e-06
1.76928e-08
1.23335e-06
6.51296e-08
7.95767e-08
1.24295e-06
1.26428e-06
-5.6378e-07
1.36828e-06
-8.62271e-07
1.40066e-06
-4.86935e-07
1.38261e-06
1.84583e-06
1.27721e-06
5.29019e-07
1.25849e-06
-1.4331e-06
1.32514e-06
-2.40939e-06
1.35557e-06
-9.92615e-07
1.36299e-06
-4.26895e-07
1.36308e-06
4.21865e-07
1.36836e-06
3.30476e-08
1.36593e-06
1.49629e-07
1.33093e-06
4.47108e-08
1.3509e-06
-3.66988e-08
1.33102e-06
-2.30568e-07
1.34876e-06
-6.92927e-08
1.32826e-06
-6.95014e-08
1.32929e-06
1.66643e-08
1.30732e-06
8.70975e-08
9.28193e-08
1.29408e-06
1.31748e-06
-5.37155e-07
1.416e-06
-9.60789e-07
1.46289e-06
-5.33828e-07
1.49049e-06
1.81823e-06
1.38197e-06
6.37538e-07
1.33002e-06
-1.38115e-06
1.37123e-06
-2.45061e-06
1.41178e-06
-1.03316e-06
1.42376e-06
-4.38874e-07
1.44214e-06
4.03488e-07
1.44491e-06
3.02723e-08
1.45102e-06
1.43516e-07
1.41442e-06
8.1311e-08
1.42355e-06
-4.58262e-08
1.40551e-06
-2.12528e-07
1.41323e-06
-7.70139e-08
1.40203e-06
-5.82943e-08
1.39584e-06
2.28535e-08
1.38056e-06
1.02377e-07
1.10959e-07
1.36242e-06
1.37064e-06
-4.99439e-07
1.45747e-06
-1.04762e-06
1.52576e-06
-6.02123e-07
1.58906e-06
1.75493e-06
1.48763e-06
7.3897e-07
1.40605e-06
-1.29957e-06
1.41345e-06
-2.458e-06
1.4622e-06
-1.08191e-06
1.48534e-06
-4.62008e-07
1.51764e-06
3.71183e-07
1.52371e-06
2.41991e-08
1.53013e-06
1.37103e-07
1.4983e-06
1.13143e-07
1.4936e-06
-4.11308e-08
1.47708e-06
-1.96009e-07
1.47861e-06
-7.85427e-08
1.47267e-06
-5.23579e-08
1.46734e-06
2.81828e-08
1.45475e-06
1.14975e-07
1.28809e-07
1.4369e-06
1.42762e-06
-4.51384e-07
1.49683e-06
-1.11683e-06
1.58944e-06
-6.94735e-07
1.67741e-06
1.66697e-06
1.59066e-06
8.25716e-07
1.48568e-06
-1.19459e-06
1.45898e-06
-2.4313e-06
1.51063e-06
-1.13357e-06
1.54975e-06
-5.01121e-07
1.59366e-06
3.27266e-07
1.60529e-06
1.2576e-08
1.60893e-06
1.33458e-07
1.58079e-06
1.41286e-07
1.56531e-06
-2.56502e-08
1.5461e-06
-1.76804e-07
1.54439e-06
-7.68245e-08
1.54079e-06
-4.87617e-08
1.5386e-06
3.03751e-08
1.53022e-06
1.23353e-07
1.44973e-07
1.51406e-06
1.4927e-06
-3.9787e-07
1.5405e-06
-1.16462e-06
1.65371e-06
-8.07943e-07
1.75708e-06
1.56359e-06
1.68797e-06
8.94826e-07
1.5687e-06
-1.07531e-06
1.51408e-06
-2.37669e-06
1.56271e-06
-1.18219e-06
1.61731e-06
-5.55727e-07
1.67237e-06
2.72209e-07
1.68846e-06
-3.51965e-09
1.68971e-06
1.3221e-07
1.66218e-06
1.68814e-07
1.63912e-06
-2.58362e-09
1.61482e-06
-1.52505e-07
1.60968e-06
-7.1684e-08
1.6071e-06
-4.6183e-08
1.6077e-06
2.97745e-08
1.60457e-06
1.26484e-07
1.57431e-07
1.59211e-06
1.5685e-06
-3.46237e-07
1.59374e-06
-1.18987e-06
1.71715e-06
-9.31354e-07
1.8293e-06
1.45144e-06
1.77718e-06
9.46944e-07
1.65422e-06
-9.52355e-07
1.5808e-06
-2.30327e-06
1.62183e-06
-1.22321e-06
1.68676e-06
-6.20661e-07
1.75174e-06
2.0723e-07
1.77038e-06
-2.21562e-08
1.77079e-06
1.31795e-07
1.74269e-06
1.96913e-07
1.71421e-06
2.58975e-08
1.68472e-06
-1.23019e-07
1.67524e-06
-6.21997e-08
1.67233e-06
-4.32751e-08
1.67458e-06
2.75282e-08
1.67633e-06
1.24732e-07
1.64742e-07
1.66902e-06
1.6545e-06
-3.03159e-07
1.65848e-06
-1.19385e-06
1.77807e-06
-1.05094e-06
1.89383e-06
1.33568e-06
1.85729e-06
9.83489e-07
1.74082e-06
-8.35889e-07
1.65775e-06
-2.2202e-06
1.68856e-06
-1.25402e-06
1.75643e-06
-6.88526e-07
1.82801e-06
1.35642e-07
1.84771e-06
-4.18566e-08
1.84914e-06
1.30369e-07
1.82165e-06
2.24402e-07
1.78986e-06
5.7688e-08
1.75652e-06
-8.96795e-08
1.74246e-06
-4.81389e-08
1.73792e-06
-3.8735e-08
1.74021e-06
2.52364e-08
1.74549e-06
1.19459e-07
1.66674e-07
1.74355e-06
1.74762e-06
-2.72061e-07
1.7338e-06
-1.18003e-06
1.83643e-06
-1.15358e-06
1.95057e-06
1.22154e-06
1.92925e-06
1.00482e-06
1.82753e-06
-7.34172e-07
1.74243e-06
-2.1351e-06
1.76206e-06
-1.27366e-06
1.82527e-06
-7.51729e-07
1.89848e-06
6.24283e-08
1.91823e-06
-6.16069e-08
1.9224e-06
1.26197e-07
1.89807e-06
2.48733e-07
1.86564e-06
9.01235e-08
1.83066e-06
-5.46986e-08
1.81272e-06
-3.02025e-08
1.80575e-06
-3.17652e-08
1.80653e-06
2.44557e-08
1.81337e-06
1.12625e-07
1.64128e-07
1.81591e-06
1.84433e-06
-2.52643e-07
1.81778e-06
-1.15347e-06
1.89504e-06
-1.23084e-06
2.00193e-06
1.11465e-06
1.99609e-06
1.01065e-06
1.91444e-06
-6.52518e-07
1.83267e-06
-2.05332e-06
1.84142e-06
-1.28242e-06
1.89367e-06
-8.03971e-07
1.96311e-06
-7.01314e-09
1.98201e-06
-8.05138e-08
1.99008e-06
1.18128e-07
1.97157e-06
2.67244e-07
1.94152e-06
1.20181e-07
1.90757e-06
-2.07528e-08
1.88725e-06
-9.88644e-09
1.87779e-06
-2.22983e-08
1.87603e-06
2.62154e-08
1.88237e-06
1.06282e-07
1.58758e-07
1.88774e-06
1.94242e-06
-2.42225e-07
1.90884e-06
-1.11989e-06
1.95853e-06
-1.28053e-06
2.05345e-06
1.01973e-06
2.06244e-06
1.00167e-06
2.00251e-06
-5.92591e-07
1.927e-06
-1.97782e-06
1.9263e-06
-1.28172e-06
1.9638e-06
-8.41467e-07
2.02498e-06
-6.8198e-08
2.04206e-06
-9.75914e-08
2.05409e-06
1.06099e-07
2.04304e-06
2.78293e-07
2.01802e-06
1.45197e-07
1.98771e-06
9.55702e-09
1.96699e-06
1.08385e-08
1.95571e-06
-1.10154e-08
1.95117e-06
3.07513e-08
1.95539e-06
1.02064e-07
1.52478e-07
1.96167e-06
2.04149e-06
-2.37525e-07
2.00585e-06
-1.08425e-06
2.03108e-06
-1.30576e-06
2.11184e-06
9.3897e-07
2.13315e-06
9.8035e-07
2.09309e-06
-5.52527e-07
2.02465e-06
-1.90938e-06
2.01682e-06
-1.27389e-06
2.03894e-06
-8.63588e-07
2.08932e-06
-1.18573e-07
2.10352e-06
-1.11797e-07
2.11836e-06
9.12635e-08
2.11476e-06
2.81894e-07
2.09633e-06
1.63629e-07
2.07156e-06
3.43216e-08
2.05238e-06
3.0024e-08
2.04052e-06
8.41838e-10
2.03384e-06
3.74338e-08
2.0351e-06
1.00796e-07
1.46927e-07
2.04065e-06
2.14233e-06
-2.3585e-07
2.10796e-06
-1.04988e-06
2.11464e-06
-1.31243e-06
2.18193e-06
8.71674e-07
2.21182e-06
9.50466e-07
2.18747e-06
-5.2818e-07
2.12541e-06
-1.84732e-06
2.11306e-06
-1.26154e-06
2.12192e-06
-8.7244e-07
2.16119e-06
-1.57845e-07
2.1717e-06
-1.22314e-07
2.18746e-06
7.55123e-08
2.18982e-06
2.79526e-07
2.17806e-06
1.75395e-07
2.15965e-06
5.27337e-08
2.1434e-06
4.62702e-08
2.13234e-06
1.19048e-08
2.12483e-06
4.49428e-08
2.12332e-06
1.02308e-07
1.42996e-07
2.12725e-06
2.24612e-06
-2.35479e-07
2.21467e-06
-1.01843e-06
2.20877e-06
-1.30653e-06
2.26514e-06
8.15299e-07
2.29988e-06
9.15729e-07
2.28662e-06
-5.14917e-07
2.2295e-06
-1.7902e-06
2.21478e-06
-1.24683e-06
2.21385e-06
-8.71513e-07
2.2435e-06
-1.87495e-07
2.25006e-06
-1.28868e-07
2.26493e-06
6.0639e-08
2.27121e-06
2.73247e-07
2.26501e-06
1.81599e-07
2.25265e-06
6.50856e-08
2.23991e-06
5.90118e-08
2.23061e-06
2.12033e-08
2.2238e-06
5.17566e-08
2.22049e-06
1.05619e-07
1.40678e-07
2.22281e-06
2.35389e-06
-2.35497e-07
2.32578e-06
-9.90318e-07
2.31176e-06
-1.29251e-06
2.36018e-06
7.66878e-07
2.39709e-06
8.78817e-07
2.39113e-06
-5.08957e-07
2.33742e-06
-1.73649e-06
2.3216e-06
-1.231e-06
2.31432e-06
-8.64241e-07
2.33663e-06
-2.09805e-07
2.3396e-06
-1.31835e-07
2.35252e-06
4.77167e-08
2.36101e-06
2.6476e-07
2.35877e-06
1.83843e-07
2.35143e-06
7.24196e-08
2.34204e-06
6.84063e-08
2.33472e-06
2.85199e-08
2.32973e-06
5.67433e-08
2.3259e-06
1.09453e-07
1.39365e-07
2.32721e-06
2.46636e-06
-2.35461e-07
2.44135e-06
-9.65311e-07
2.42192e-06
-1.27308e-06
2.46492e-06
7.2388e-07
2.50255e-06
8.41189e-07
2.50135e-06
-5.0776e-07
2.4498e-06
-1.68494e-06
2.4333e-06
-1.21451e-06
2.42227e-06
-8.53205e-07
2.43945e-06
-2.26986e-07
2.43967e-06
-1.32058e-07
2.4504e-06
3.69902e-08
2.46018e-06
2.54976e-07
2.46047e-06
1.83555e-07
2.45683e-06
7.60576e-08
2.45024e-06
7.49969e-08
2.44448e-06
3.42845e-08
2.44167e-06
5.95483e-08
2.43835e-06
1.12777e-07
1.38405e-07
2.43931e-06
2.58399e-06
-2.35152e-07
2.56159e-06
-9.42912e-07
2.53826e-06
-1.24975e-06
2.57778e-06
6.84353e-07
2.61553e-06
8.03444e-07
2.61752e-06
-5.09752e-07
2.56723e-06
-1.63465e-06
2.54999e-06
-1.19727e-06
2.53683e-06
-8.40045e-07
2.55059e-06
-2.40742e-07
2.54908e-06
-1.30551e-07
2.55793e-06
2.81433e-08
2.56875e-06
2.44151e-07
2.57065e-06
1.81657e-07
2.56947e-06
7.72358e-08
2.56509e-06
7.93827e-08
2.56018e-06
3.91859e-08
2.55918e-06
6.05492e-08
2.55692e-06
1.15042e-07
1.37488e-07
2.55784e-06
2.70712e-06
-2.34447e-07
2.68676e-06
-9.22551e-07
2.66044e-06
-1.22343e-06
2.69803e-06
6.46766e-07
2.73569e-06
7.65785e-07
2.73983e-06
-5.13896e-07
2.69021e-06
-1.58503e-06
2.67196e-06
-1.17902e-06
2.65765e-06
-8.25726e-07
2.66913e-06
-2.52229e-07
2.66683e-06
-1.28253e-07
2.67433e-06
2.06496e-08
2.68622e-06
2.32254e-07
2.68928e-06
1.78602e-07
2.68959e-06
7.69251e-08
2.68692e-06
8.20544e-08
2.68231e-06
4.37979e-08
2.68236e-06
6.04997e-08
2.68127e-06
1.16128e-07
1.36668e-07
2.68209e-06
2.83609e-06
-2.33273e-07
2.81725e-06
-9.03702e-07
2.78857e-06
-1.19476e-06
2.82545e-06
6.09888e-07
2.86294e-06
7.28292e-07
2.86846e-06
-5.19414e-07
2.81919e-06
-1.53576e-06
2.79963e-06
-1.15946e-06
2.78472e-06
-8.10811e-07
2.79468e-06
-2.62191e-07
2.79232e-06
-1.25896e-07
2.79898e-06
1.39956e-08
2.81196e-06
2.19274e-07
2.81599e-06
1.74572e-07
2.81711e-06
7.58064e-08
2.81578e-06
8.33827e-08
2.81116e-06
4.84138e-08
2.81152e-06
6.01451e-08
2.8115e-06
1.16146e-07
1.36143e-07
2.81202e-06
2.97121e-06
-2.31589e-07
2.95346e-06
-8.85955e-07
2.92292e-06
-1.16421e-06
2.96004e-06
5.72767e-07
2.99731e-06
6.91028e-07
3.00357e-06
-5.25677e-07
2.95451e-06
-1.4867e-06
2.93342e-06
-1.13838e-06
2.91826e-06
-7.95643e-07
2.92715e-06
-2.71089e-07
2.92523e-06
-1.23972e-07
2.93145e-06
7.77637e-09
2.94541e-06
2.05316e-07
2.95032e-06
1.69662e-07
2.95181e-06
7.43186e-08
2.95151e-06
8.36769e-08
2.94685e-06
5.30701e-08
2.94699e-06
6.00106e-08
2.94784e-06
1.15291e-07
1.36032e-07
2.94795e-06
3.11278e-06
-2.29359e-07
3.09588e-06
-8.69055e-07
3.0638e-06
-1.13214e-06
3.1018e-06
5.34764e-07
3.13879e-06
6.54041e-07
3.14529e-06
-5.32181e-07
3.09648e-06
-1.43788e-06
3.07374e-06
-1.11565e-06
3.05853e-06
-7.80432e-07
3.06665e-06
-2.79203e-07
3.06543e-06
-1.22754e-07
3.0715e-06
1.71063e-09
3.08622e-06
1.90592e-07
3.09193e-06
1.63947e-07
3.09352e-06
7.27339e-08
3.09399e-06
8.32073e-08
3.08938e-06
5.76816e-08
3.08903e-06
6.03562e-08
3.09056e-06
1.13767e-07
1.36286e-07
3.0903e-06
3.26109e-06
-2.2654e-07
3.24492e-06
-8.52886e-07
3.21155e-06
-1.09876e-06
3.25076e-06
4.9555e-07
3.28745e-06
6.17355e-07
3.29379e-06
-5.38519e-07
3.24538e-06
-1.38947e-06
3.22099e-06
-1.09126e-06
3.20585e-06
-7.65296e-07
3.21334e-06
-2.86689e-07
3.21293e-06
-1.2234e-07
3.219e-06
-4.36596e-09
3.23424e-06
1.75357e-07
3.24068e-06
1.57501e-07
3.24221e-06
7.12093e-08
3.24322e-06
8.21973e-08
3.23877e-06
6.21298e-08
3.23786e-06
6.12659e-08
3.23989e-06
1.11735e-07
1.36723e-07
3.23946e-06
3.41646e-06
-2.23065e-07
3.401e-06
-8.37428e-07
3.36653e-06
-1.0643e-06
3.40701e-06
4.55072e-07
3.44342e-06
5.80948e-07
3.44926e-06
-5.44361e-07
3.40149e-06
-1.3417e-06
3.37554e-06
-1.06531e-06
3.36053e-06
-7.50285e-07
3.36746e-06
-2.93621e-07
3.36783e-06
-1.22703e-07
3.37398e-06
-1.05196e-08
3.38947e-06
1.59867e-07
3.39656e-06
1.50407e-07
3.39797e-06
6.98008e-08
3.39935e-06
8.08218e-08
3.39518e-06
6.62951e-08
3.39373e-06
6.27242e-08
3.39612e-06
1.09339e-07
1.37062e-07
3.39578e-06
3.57921e-06
-2.18863e-07
3.56446e-06
-8.2268e-07
3.52912e-06
-1.02896e-06
3.5707e-06
4.13496e-07
3.6069e-06
5.44741e-07
3.61197e-06
-5.49429e-07
3.56507e-06
-1.2948e-06
3.53776e-06
-1.038e-06
3.52288e-06
-7.35405e-07
3.52929e-06
-3.00028e-07
3.53032e-06
-1.23738e-07
3.53655e-06
-1.67482e-08
3.55207e-06
1.44347e-07
3.55971e-06
1.42765e-07
3.56103e-06
6.84864e-08
3.56265e-06
7.91992e-08
3.55889e-06
7.00557e-08
3.55694e-06
6.46775e-08
3.55957e-06
1.06707e-07
1.36992e-07
3.55964e-06
3.74972e-06
-2.13876e-07
3.73564e-06
-8.086e-07
3.69969e-06
-9.93003e-07
3.74205e-06
3.71135e-07
3.7782e-06
5.08591e-07
3.78228e-06
-5.53509e-07
3.73643e-06
-1.24895e-06
3.70799e-06
-1.00956e-06
3.6932e-06
-7.20621e-07
3.6991e-06
-3.05922e-07
3.70067e-06
-1.25311e-07
3.70693e-06
-2.30065e-08
3.72231e-06
1.28965e-07
3.73038e-06
1.34699e-07
3.73167e-06
6.71954e-08
3.73347e-06
7.73983e-08
3.73022e-06
7.3303e-08
3.72788e-06
6.70198e-08
3.7306e-06
1.03988e-07
1.36242e-07
3.73135e-06
3.92841e-06
-2.08099e-07
3.91488e-06
-7.95066e-07
3.8786e-06
-9.56727e-07
3.92134e-06
3.28396e-07
3.95762e-06
4.72311e-07
3.96058e-06
-5.56467e-07
3.91588e-06
-1.20426e-06
3.88656e-06
-9.80242e-07
3.87181e-06
-7.05871e-07
3.87722e-06
-3.11327e-07
3.87918e-06
-1.27276e-07
3.88541e-06
-2.92376e-08
3.90055e-06
1.13831e-07
3.9089e-06
1.2635e-07
3.91024e-06
6.5849e-08
3.9122e-06
7.54453e-08
3.90954e-06
7.59632e-08
3.90698e-06
6.95788e-08
3.90957e-06
1.01391e-07
1.34626e-07
3.91119e-06
4.11573e-06
-2.0158e-07
4.10255e-06
-7.81884e-07
4.06623e-06
-9.20412e-07
4.10891e-06
2.85715e-07
4.14552e-06
4.35706e-07
4.14732e-06
-5.58263e-07
4.10381e-06
-1.16075e-06
4.07383e-06
-9.50262e-07
4.05903e-06
-6.91076e-07
4.064e-06
-3.16288e-07
4.06622e-06
-1.29497e-07
4.07237e-06
-3.53879e-08
4.08719e-06
9.90104e-08
4.09567e-06
1.17864e-07
4.09712e-06
6.44033e-08
4.09924e-06
7.33192e-08
4.09719e-06
7.80147e-08
4.09462e-06
7.2154e-08
4.09694e-06
9.90676e-08
1.32146e-07
4.09942e-06
4.31214e-06
-1.9442e-07
4.29908e-06
-7.68825e-07
4.26297e-06
-8.843e-07
4.30517e-06
2.43521e-07
4.34226e-06
3.98611e-07
4.34293e-06
-5.58936e-07
4.30062e-06
-1.11844e-06
4.27018e-06
-9.19815e-07
4.25525e-06
-6.76148e-07
4.25983e-06
-3.20867e-07
4.26217e-06
-1.31842e-07
4.26819e-06
-4.14094e-08
4.28267e-06
8.45307e-08
4.29114e-06
1.09395e-07
4.29264e-06
6.29035e-08
4.29498e-06
7.09802e-08
4.29357e-06
7.94211e-08
4.29113e-06
7.4596e-08
4.29315e-06
9.70549e-08
1.28969e-07
4.29632e-06
4.51809e-06
-1.86741e-07
4.50495e-06
-7.55677e-07
4.46923e-06
-8.48586e-07
4.51057e-06
2.02181e-07
4.54824e-06
3.60943e-07
4.54789e-06
-5.58589e-07
4.50676e-06
-1.0773e-06
4.476e-06
-8.89062e-07
4.46087e-06
-6.61012e-07
4.46514e-06
-3.25136e-07
4.4675e-06
-1.34206e-07
4.47333e-06
-4.72354e-08
4.48746e-06
7.04018e-08
4.4958e-06
1.01054e-07
4.49725e-06
6.14538e-08
4.49977e-06
6.8454e-08
4.49906e-06
8.01312e-08
4.49685e-06
7.6808e-08
4.49862e-06
9.52838e-08
1.25302e-07
4.50229e-06
4.73403e-06
-1.78655e-07
4.72064e-06
-7.42289e-07
4.68546e-06
-8.1341e-07
4.72566e-06
1.61982e-07
4.76388e-06
3.22723e-07
4.76263e-06
-5.57338e-07
4.72268e-06
-1.03735e-06
4.69175e-06
-8.58138e-07
4.67636e-06
-6.45614e-07
4.68038e-06
-3.29161e-07
4.68269e-06
-1.36521e-07
4.68823e-06
-5.27734e-08
4.70198e-06
5.665e-08
4.71019e-06
9.28484e-08
4.71142e-06
6.02272e-08
4.71408e-06
6.57924e-08
4.71413e-06
8.00759e-08
4.71221e-06
7.87344e-08
4.71381e-06
9.36834e-08
1.21299e-07
4.71781e-06
4.96038e-06
-1.70241e-07
4.94668e-06
-7.28589e-07
4.91214e-06
-7.78865e-07
4.95102e-06
1.23097e-07
4.98967e-06
2.84073e-07
4.98762e-06
-5.5528e-07
4.94888e-06
-9.98613e-07
4.91789e-06
-8.27144e-07
4.9022e-06
-6.29922e-07
4.90604e-06
-3.33004e-07
4.90829e-06
-1.3877e-07
4.9134e-06
-5.78812e-08
4.92674e-06
4.33111e-08
4.93488e-06
8.47083e-08
4.93579e-06
5.93175e-08
4.93844e-06
6.3136e-08
4.93937e-06
7.91511e-08
4.93779e-06
8.03162e-08
4.93911e-06
9.23629e-08
1.16996e-07
4.94341e-06
5.19762e-06
-1.61542e-07
5.18361e-06
-7.14579e-07
5.14974e-06
-7.44994e-07
5.18724e-06
8.55973e-08
5.22613e-06
2.4518e-07
5.22331e-06
-5.52462e-07
5.18589e-06
-9.6119e-07
5.15492e-06
-7.96174e-07
5.13889e-06
-6.13891e-07
5.1426e-06
-3.36717e-07
5.14484e-06
-1.41014e-07
5.14934e-06
-6.23808e-08
5.16223e-06
3.04291e-08
5.17045e-06
7.64885e-08
5.17101e-06
5.87493e-08
5.17348e-06
6.06658e-08
5.17527e-06
7.73649e-08
5.17419e-06
8.13983e-08
5.17507e-06
9.14827e-08
1.12475e-07
5.17959e-06
5.44622e-06
-1.52574e-07
5.43195e-06
-7.0031e-07
5.39874e-06
-7.11786e-07
5.43488e-06
4.94604e-08
5.47379e-06
2.0627e-07
5.47024e-06
-5.48913e-07
5.43422e-06
-9.2517e-07
5.40339e-06
-7.65341e-07
5.38694e-06
-5.97443e-07
5.39053e-06
-3.4031e-07
5.39292e-06
-1.43401e-07
5.39662e-06
-6.6085e-08
5.40901e-06
1.80436e-08
5.41743e-06
6.80722e-08
5.41778e-06
5.83969e-08
5.41986e-06
5.85894e-08
5.42234e-06
7.48843e-08
5.42194e-06
8.17927e-08
5.42245e-06
9.0973e-08
1.08094e-07
5.42683e-06
5.70672e-06
-1.43341e-07
5.69228e-06
-6.85865e-07
5.65967e-06
-6.79172e-07
5.69454e-06
1.45875e-08
5.73322e-06
1.67592e-07
5.72895e-06
-5.44641e-07
5.69441e-06
-8.9063e-07
5.66387e-06
-7.34804e-07
5.6469e-06
-5.80477e-07
5.65033e-06
-3.43737e-07
5.65307e-06
-1.46143e-07
5.65586e-06
-6.88726e-08
5.66761e-06
6.28717e-09
5.67637e-06
5.93208e-08
5.6767e-06
5.80669e-08
5.6782e-06
5.70824e-08
5.68109e-06
7.19932e-08
5.68157e-06
8.13195e-08
5.6819e-06
9.06402e-08
1.042e-07
5.68579e-06
5.9797e-06
-1.33849e-07
5.96517e-06
-6.71338e-07
5.93306e-06
-6.47053e-07
5.96681e-06
-1.91648e-08
6.00499e-06
1.29409e-07
5.99993e-06
-5.39584e-07
5.96698e-06
-8.57672e-07
5.93697e-06
-7.04802e-07
5.91934e-06
-5.62849e-07
5.92251e-06
-3.46899e-07
5.92581e-06
-1.49448e-07
5.92769e-06
-7.07489e-08
5.93859e-06
-4.61322e-09
5.94781e-06
5.00968e-08
5.94836e-06
5.75233e-08
5.94919e-06
5.62519e-08
5.95216e-06
6.90183e-08
5.95355e-06
7.99274e-08
5.95401e-06
9.01825e-08
1.00984e-07
5.95723e-06
6.26576e-06
-1.24117e-07
6.25125e-06
-6.56829e-07
6.21956e-06
-6.15363e-07
6.25228e-06
-5.18866e-08
6.28978e-06
9.19077e-08
6.28374e-06
-5.33545e-07
6.25247e-06
-8.26399e-07
6.2233e-06
-6.75635e-07
6.20492e-06
-5.44471e-07
6.20761e-06
-3.49582e-07
6.21166e-06
-1.53496e-07
6.21279e-06
-7.18857e-08
6.2225e-06
-1.43167e-08
6.23235e-06
4.02475e-08
6.23335e-06
5.6515e-08
6.23346e-06
5.61455e-08
6.23623e-06
6.62469e-08
6.23843e-06
7.77287e-08
6.23936e-06
8.92484e-08
9.843e-08
6.24192e-06
6.56553e-06
-1.14182e-07
6.55112e-06
-6.42418e-07
6.51997e-06
-5.84205e-07
6.55146e-06
-8.33788e-08
6.5883e-06
5.50647e-08
6.58102e-06
-5.26269e-07
6.55142e-06
-7.96794e-07
6.52347e-06
-6.4769e-07
6.50432e-06
-5.25319e-07
6.50625e-06
-3.51515e-07
6.51112e-06
-1.58358e-07
6.51181e-06
-7.25766e-08
6.52004e-06
-2.25544e-08
6.53042e-06
2.98717e-08
6.53223e-06
5.47038e-08
6.53171e-06
5.66689e-08
6.53398e-06
6.39769e-08
6.53681e-06
7.48932e-08
6.53845e-06
8.76095e-08
9.63064e-08
6.54058e-06
6.87971e-06
-1.04106e-07
6.86545e-06
-6.28149e-07
6.83508e-06
-5.53839e-07
6.86485e-06
-1.13145e-07
6.90122e-06
1.86889e-08
6.89257e-06
-5.1762e-07
6.86438e-06
-7.68602e-07
6.83809e-06
-6.21401e-07
6.81826e-06
-5.05484e-07
6.81913e-06
-3.52389e-07
6.82474e-06
-1.6397e-07
6.82537e-06
-7.32006e-08
6.83196e-06
-2.91475e-08
6.84258e-06
1.92508e-08
6.8455e-06
5.17832e-08
6.84458e-06
5.7587e-08
6.84614e-06
6.24173e-08
6.84934e-06
7.16945e-08
6.85182e-06
8.51296e-08
9.42669e-08
6.85386e-06
7.20901e-06
-9.39805e-08
7.19487e-06
-6.14012e-07
7.16567e-06
-5.24633e-07
7.19297e-06
-1.40449e-07
7.22918e-06
-1.75202e-08
7.21925e-06
-5.07688e-07
7.19201e-06
-7.41361e-07
7.16771e-06
-5.97099e-07
7.14748e-06
-4.85259e-07
7.14698e-06
-3.51882e-07
7.15315e-06
-1.70142e-07
7.15402e-06
-7.40705e-08
7.15902e-06
-3.41456e-08
7.16944e-06
8.82736e-09
7.17371e-06
4.75141e-08
7.17273e-06
5.85618e-08
7.17346e-06
6.1686e-08
7.1767e-06
6.84607e-08
7.18006e-06
8.17716e-08
9.19823e-08
7.18234e-06
7.55417e-06
-8.39275e-08
7.5401e-06
-5.99939e-07
7.5125e-06
-4.97037e-07
7.53649e-06
-1.64439e-07
7.57279e-06
-5.38124e-08
7.56192e-06
-4.96827e-07
7.53505e-06
-7.14487e-07
7.51292e-06
-5.74969e-07
7.49268e-06
-4.65016e-07
7.49059e-06
-3.49798e-07
7.49702e-06
-1.7657e-07
7.49838e-06
-7.54263e-08
7.50192e-06
-3.76867e-08
7.51169e-06
-9.43914e-10
7.5174e-06
4.18023e-08
7.51681e-06
5.91562e-08
7.51668e-06
6.18149e-08
7.51963e-06
6.55138e-08
7.52376e-06
7.76361e-08
8.91553e-08
7.52659e-06
7.91599e-06
-7.41027e-08
7.90181e-06
-5.85761e-07
7.87634e-06
-4.71565e-07
7.89624e-06
-1.84343e-07
7.93261e-06
-9.01862e-08
7.92147e-06
-4.85688e-07
7.89438e-06
-6.8739e-07
7.87433e-06
-5.5492e-07
7.85455e-06
-4.45239e-07
7.85078e-06
-3.46026e-07
7.85709e-06
-1.82884e-07
7.85905e-06
-7.73809e-08
7.86132e-06
-3.99574e-08
7.87013e-06
-9.75764e-09
7.8771e-06
3.48316e-08
7.87733e-06
5.89316e-08
7.87655e-06
6.25955e-08
7.87893e-06
6.31345e-08
7.88355e-06
7.30112e-08
8.55023e-08
7.8872e-06
8.29527e-06
-6.46908e-08
8.28057e-06
-5.7106e-07
8.25789e-06
-4.48882e-07
8.27319e-06
-1.99652e-07
8.30924e-06
-1.26231e-07
8.29875e-06
-4.75196e-07
8.27092e-06
-6.59559e-07
8.25256e-06
-5.3656e-07
8.23376e-06
-4.26443e-07
8.22834e-06
-3.40609e-07
8.23411e-06
-1.88649e-07
8.23665e-06
-7.99218e-08
8.23788e-06
-4.11918e-08
8.24545e-06
-1.73183e-08
8.25336e-06
2.69193e-08
8.25484e-06
5.7453e-08
8.2538e-06
6.36352e-08
8.25545e-06
6.14839e-08
8.26012e-06
6.83341e-08
8.08835e-08
8.26474e-06
8.69287e-06
-5.59017e-08
8.67715e-06
-5.5534e-07
8.65784e-06
-4.2957e-07
8.66847e-06
-2.10285e-07
8.70322e-06
-1.60977e-07
8.69439e-06
-4.66364e-07
8.66568e-06
-6.3085e-07
8.64836e-06
-5.19241e-07
8.63089e-06
-4.08978e-07
8.624e-06
-3.33713e-07
8.62878e-06
-1.93433e-07
8.63171e-06
-8.28478e-08
8.63228e-06
-4.17645e-08
8.63838e-06
-2.34192e-08
8.64684e-06
1.84572e-08
8.64988e-06
5.442e-08
8.6491e-06
6.44084e-08
8.65004e-06
6.05418e-08
8.65437e-06
6.40103e-08
7.54522e-08
8.6598e-06
9.10967e-06
-4.79564e-08
9.09249e-06
-5.38156e-07
9.07686e-06
-4.13939e-07
9.08336e-06
-2.16783e-07
9.11529e-06
-1.92908e-07
9.10893e-06
-4.60006e-07
9.07968e-06
-6.01595e-07
9.06249e-06
-5.02056e-07
9.04641e-06
-3.92897e-07
9.03826e-06
-3.25562e-07
9.04169e-06
-1.96868e-07
9.04491e-06
-8.60617e-08
9.04521e-06
-4.20697e-08
9.04986e-06
-2.80669e-08
9.05841e-06
9.90658e-09
9.06312e-06
4.97103e-08
9.06317e-06
6.43587e-08
9.0636e-06
6.01131e-08
9.06725e-06
6.03629e-08
6.96408e-08
9.07306e-06
9.54657e-06
-4.10672e-08
9.52759e-06
-5.19177e-07
9.51568e-06
-4.02025e-07
9.51915e-06
-2.20259e-07
9.54646e-06
-2.20209e-07
9.54287e-06
-4.56424e-07
9.51383e-06
-5.72547e-07
9.49579e-06
-4.84019e-07
9.48078e-06
-3.77888e-07
9.47178e-06
-3.1656e-07
9.47378e-06
-1.9887e-07
9.47734e-06
-8.96183e-08
9.47772e-06
-4.24474e-08
9.48094e-06
-3.1293e-08
9.48914e-06
1.71299e-09
9.49543e-06
4.34193e-08
9.49671e-06
6.30797e-08
9.49705e-06
5.9765e-08
9.49986e-06
5.75529e-08
6.40326e-08
9.50547e-06
1.00045e-05
-3.54352e-08
9.98352e-06
-4.98195e-07
9.9751e-06
-3.93599e-07
9.97679e-06
-2.21953e-07
9.99798e-06
-2.414e-07
9.99667e-06
-4.55116e-07
9.96868e-06
-5.44553e-07
9.94939e-06
-4.6473e-07
9.93508e-06
-3.6358e-07
9.92567e-06
-3.07151e-07
9.92642e-06
-1.99621e-07
9.93042e-06
-9.36197e-08
9.93108e-06
-4.31092e-08
9.93296e-06
-3.31708e-08
9.94031e-06
-5.63156e-09
9.94785e-06
3.58744e-08
9.95062e-06
6.03105e-08
9.95124e-06
5.91476e-08
9.95338e-06
5.54096e-08
5.91409e-08
9.95827e-06
1.04844e-05
-3.12231e-08
1.04614e-05
-4.75177e-07
1.0456e-05
-3.88204e-07
1.04571e-05
-2.2306e-07
1.04713e-05
-2.55608e-07
1.04711e-05
-4.54859e-07
1.04453e-05
-5.18812e-07
1.04249e-05
-4.44296e-07
1.04108e-05
-3.49484e-07
1.04012e-05
-2.97576e-07
1.0401e-05
-1.99383e-07
1.04053e-05
-9.78909e-08
1.04064e-05
-4.42918e-08
1.04073e-05
-3.39859e-08
1.04133e-05
-1.1678e-08
1.04216e-05
2.7614e-08
1.04259e-05
5.5997e-08
1.0427e-05
5.80159e-08
1.04289e-05
5.35472e-08
5.51781e-08
1.04328e-05
1.09873e-05
-2.85302e-08
1.09624e-05
-4.50256e-07
1.09594e-05
-3.85216e-07
1.0961e-05
-2.24653e-07
1.09685e-05
-2.63142e-07
1.09677e-05
-4.53982e-07
1.09452e-05
-4.96351e-07
1.09241e-05
-4.23148e-07
1.09094e-05
-3.3478e-07
1.08997e-05
-2.87957e-07
1.08987e-05
-1.98348e-07
1.09031e-05
-1.02271e-07
1.09049e-05
-4.60973e-08
1.09051e-05
-3.4191e-08
1.09095e-05
-1.61153e-08
1.09178e-05
1.93287e-08
1.09236e-05
5.02378e-08
1.09254e-05
5.61792e-08
1.09272e-05
5.17132e-08
5.19143e-08
1.09305e-05
1.15142e-05
-2.73678e-08
1.14877e-05
-4.23725e-07
1.1486e-05
-3.83572e-07
1.14893e-05
-2.2791e-07
1.14911e-05
-2.64959e-07
1.14877e-05
-4.50609e-07
1.14691e-05
-4.77726e-07
1.14483e-05
-4.0237e-07
1.14324e-05
-3.18866e-07
1.14224e-05
-2.77901e-07
1.14207e-05
-1.96657e-07
1.14251e-05
-1.06693e-07
1.14275e-05
-4.85153e-08
1.14275e-05
-3.41599e-08
1.14303e-05
-1.89518e-08
1.1438e-05
1.16826e-08
1.14448e-05
4.33778e-08
1.14476e-05
5.34055e-08
1.14495e-05
4.98343e-08
4.89556e-08
1.14524e-05
1.20661e-05
-2.76388e-08
1.20384e-05
-3.96062e-07
1.2037e-05
-3.82126e-07
1.20427e-05
-2.33642e-07
1.20401e-05
-2.62347e-07
1.20329e-05
-4.43363e-07
1.20177e-05
-4.62581e-07
1.19988e-05
-3.83461e-07
1.19817e-05
-3.01779e-07
1.19704e-05
-2.66586e-07
1.19679e-05
-1.94203e-07
1.19722e-05
-1.10978e-07
1.19753e-05
-5.16306e-08
1.19754e-05
-3.42198e-08
1.1977e-05
-2.05297e-08
1.19834e-05
5.22289e-09
1.19908e-05
3.60101e-08
1.19947e-05
4.9508e-08
1.19967e-05
4.78422e-08
4.60889e-08
1.19996e-05
1.26441e-05
-2.91302e-08
1.2616e-05
-3.67983e-07
1.26136e-05
-3.79761e-07
1.26221e-05
-2.42152e-07
1.26167e-05
-2.56901e-07
1.2605e-05
-4.31687e-07
1.25917e-05
-4.49293e-07
1.25761e-05
-3.67868e-07
1.25585e-05
-2.84142e-07
1.25455e-05
-2.53618e-07
1.25418e-05
-1.9044e-07
1.25457e-05
-1.14913e-07
1.25495e-05
-5.53942e-08
1.25499e-05
-3.46471e-08
1.25507e-05
-2.13346e-08
1.25557e-05
1.93499e-10
1.2563e-05
2.8753e-08
1.25679e-05
4.4576e-08
1.25703e-05
4.5517e-08
4.33123e-08
1.2573e-05
1.32493e-05
-3.15333e-08
1.32217e-05
-3.40396e-07
1.32174e-05
-3.75414e-07
1.32286e-05
-2.53313e-07
1.32218e-05
-2.50174e-07
1.32059e-05
-4.15718e-07
1.31923e-05
-4.35739e-07
1.31807e-05
-3.56225e-07
1.31638e-05
-2.67291e-07
1.31492e-05
-2.38998e-07
1.31436e-05
-1.84847e-07
1.31468e-05
-1.1813e-07
1.31511e-05
-5.9655e-08
1.31521e-05
-3.57107e-08
1.31525e-05
-2.16972e-08
1.31563e-05
-3.56196e-09
1.31629e-05
2.21262e-08
1.31685e-05
3.90023e-08
1.31714e-05
4.25919e-08
4.06229e-08
1.31741e-05
1.38831e-05
-3.443e-08
1.38571e-05
-3.14396e-07
1.38498e-05
-3.68168e-07
1.3863e-05
-2.66456e-07
1.38565e-05
-2.43689e-07
1.38368e-05
-3.96059e-07
1.3821e-05
-4.19917e-07
1.38127e-05
-3.47914e-07
1.37983e-05
-2.52899e-07
1.37828e-05
-2.23463e-07
1.37751e-05
-1.77172e-07
1.3777e-05
-1.20075e-07
1.37815e-05
-6.41002e-08
1.37833e-05
-3.75071e-08
1.37835e-05
-2.19726e-08
1.37863e-05
-6.35676e-09
1.37921e-05
1.63799e-08
1.37978e-05
3.32787e-08
1.38014e-05
3.90412e-08
3.7898e-08
1.38041e-05
1.45467e-05
-3.74263e-08
1.45227e-05
-2.9039e-07
1.45118e-05
-3.57346e-07
1.45261e-05
-2.80761e-07
1.45216e-05
-2.39121e-07
1.44992e-05
-3.73669e-07
1.44798e-05
-4.00579e-07
1.4473e-05
-3.41106e-07
1.44625e-05
-2.42323e-07
1.44473e-05
-2.08325e-07
1.44377e-05
-1.67577e-07
1.44379e-05
-1.20213e-07
1.4442e-05
-6.82261e-08
1.44446e-05
-4.01147e-08
1.44451e-05
-2.2468e-08
1.44471e-05
-8.37241e-09
1.4452e-05
1.14853e-08
1.44575e-05
2.77497e-08
1.44615e-05
3.51146e-08
3.49691e-08
1.44644e-05
1.52416e-05
-4.01292e-08
1.52176e-05
-2.66433e-07
1.52048e-05
-3.44546e-07
1.52203e-05
-2.96204e-07
1.52178e-05
-2.36622e-07
1.51933e-05
-3.49168e-07
1.51706e-05
-3.7787e-07
1.51634e-05
-3.33957e-07
1.51571e-05
-2.36023e-07
1.51439e-05
-1.95156e-07
1.5133e-05
-1.56681e-07
1.5131e-05
-1.18149e-07
1.51343e-05
-7.1534e-08
1.51374e-05
-4.31896e-08
1.51384e-05
-2.35492e-08
1.514e-05
-9.87734e-09
1.5144e-05
7.42264e-09
1.51492e-05
2.25476e-08
1.51532e-05
3.1103e-08
3.18422e-08
1.51564e-05
1.59697e-05
-4.24546e-08
1.59605e-05
-2.57283e-07
1.59445e-05
-3.28505e-07
1.59501e-05
-3.01887e-07
1.59449e-05
-2.31348e-07
1.59202e-05
-3.24534e-07
1.58954e-05
-3.5307e-07
1.58863e-05
-3.24864e-07
1.58832e-05
-2.32923e-07
1.58735e-05
-1.85379e-07
1.58622e-05
-1.45442e-07
1.58582e-05
-1.14071e-07
1.586e-05
-7.34077e-08
1.58632e-05
-4.63411e-08
1.58649e-05
-2.52637e-08
1.58664e-05
-1.13525e-08
1.58696e-05
4.22514e-09
1.58744e-05
1.77532e-08
1.58784e-05
2.70623e-08
2.87137e-08
1.58815e-05
1.67313e-05
-4.31472e-08
1.67091e-05
-2.35115e-07
1.66892e-05
-3.08543e-07
1.66988e-05
-3.11561e-07
1.67032e-05
-2.35664e-07
1.66827e-05
-3.04052e-07
1.6657e-05
-3.27385e-07
1.66449e-05
-3.12747e-07
1.66427e-05
-2.30794e-07
1.66368e-05
-1.79438e-07
1.66266e-05
-1.35286e-07
1.66209e-05
-1.08321e-07
1.6621e-05
-7.35451e-08
1.66238e-05
-4.90719e-08
1.66259e-05
-2.74122e-08
1.66277e-05
-1.31617e-08
1.66303e-05
1.67222e-09
1.66345e-05
1.3517e-08
1.66386e-05
2.29812e-08
2.56528e-08
1.66417e-05
1.75302e-05
-4.30127e-08
1.75199e-05
-2.24748e-07
1.74953e-05
-2.84008e-07
1.74934e-05
-3.09601e-07
1.7498e-05
-2.40337e-07
1.74816e-05
-2.87661e-07
1.74562e-05
-3.0195e-07
1.74412e-05
-2.97762e-07
1.74377e-05
-2.27243e-07
1.74349e-05
-1.76617e-07
1.74272e-05
-1.27638e-07
1.74206e-05
-1.01683e-07
1.7419e-05
-7.19797e-08
1.74209e-05
-5.09967e-08
1.74231e-05
-2.96168e-08
1.74253e-05
-1.53522e-08
1.74277e-05
-6.84766e-10
1.74313e-05
9.93007e-09
1.74353e-05
1.89788e-08
2.26035e-08
1.74383e-05
1.8367e-05
-4.16914e-08
1.83529e-05
-2.10575e-07
1.83314e-05
-2.62523e-07
1.83265e-05
-3.0478e-07
1.83308e-05
-2.4456e-07
1.83183e-05
-2.75231e-07
1.82944e-05
-2.77992e-07
1.82775e-05
-2.80884e-07
1.82715e-05
-2.21194e-07
1.82698e-05
-1.74984e-07
1.8265e-05
-1.22826e-07
1.82588e-05