/*--------------------------------*- C++ -*----------------------------------*\
| =========                 |                                                 |
| \\      /  F ield         | OpenFOAM: The Open Source CFD Toolbox           |
|  \\    /   O peration     | Version:  2506                                  |
|   \\  /    A nd           | Website:  www.openfoam.com                      |
|    \\/     M anipulation  |                                                 |
\*---------------------------------------------------------------------------*/
FoamFile
{
    version     2.0;
    format      ascii;
    arch        "LSB;label=32;scalar=64";
    class       volVectorField;
    location    "9.25";
    object      U;
}
// * * * * * * * * * * * * * * * * * * * * * * * * * * * * * * * * * * * * * //

dimensions      [0 1 -1 0 0 0 0];

internalField   nonuniform List<vector> 
9600
(
(0.594695 -0.00616624 0)
(1.34846 -0.0062548 0)
(0.825462 -0.00484625 0)
(1.34009 0.0219639 0)
(0.688691 0.00378538 0)
(1.16614 -0.0216497 0)
(0.799862 -0.0367963 0)
(1.26228 -0.0167089 0)
(0.866161 -0.00811609 0)
(1.24532 0.00824103 0)
(0.83909 0.00148352 0)
(1.24548 0.00263692 0)
(0.811159 -0.000684102 0)
(1.201 0.000221678 0)
(0.848358 -0.00883359 0)
(1.17757 -0.000698226 0)
(0.881192 -0.00469729 0)
(1.15901 0.00121488 0)
(0.877708 0.000895159 0)
(1.14159 0.00421344 0)
(0.621385 -0.00591979 0)
(1.32567 -0.00768993 0)
(0.841597 -0.00529756 0)
(1.32394 0.0228853 0)
(0.777551 0.00531387 0)
(1.13067 -0.0224025 0)
(0.829867 -0.0387886 0)
(1.23499 -0.0173157 0)
(0.890924 -0.00829235 0)
(1.22509 0.00885823 0)
(0.881787 0.000951936 0)
(1.22045 0.00358506 0)
(0.873326 -9.04694e-05 0)
(1.16178 -0.000168191 0)
(0.921976 -0.00847594 0)
(1.12594 -0.00146628 0)
(0.964897 -0.00391149 0)
(1.08537 0.000788772 0)
(0.985343 0.00257586 0)
(1.02896 0.0031975 0)
(0.667453 -0.00576871 0)
(1.27966 -0.00890862 0)
(0.870605 -0.00561784 0)
(1.29304 0.0239301 0)
(0.882034 0.00674409 0)
(1.09957 -0.0222118 0)
(0.870131 -0.0398186 0)
(1.1867 -0.0177204 0)
(0.932738 -0.00838524 0)
(1.18575 0.00921043 0)
(0.947427 0.000807638 0)
(1.17864 0.00395188 0)
(0.956919 0.000704035 0)
(1.11332 -0.000863882 0)
(0.997019 -0.00785573 0)
(1.07705 -0.00229441 0)
(1.02419 -0.00297828 0)
(1.04829 0.000543294 0)
(1.02266 0.0036098 0)
(1.01681 0.00406191 0)
(0.728311 -0.00555737 0)
(1.21365 -0.0100061 0)
(0.906018 -0.00604659 0)
(1.25349 0.0240478 0)
(0.977951 0.00827711 0)
(1.07422 -0.0216895 0)
(0.90935 -0.0407858 0)
(1.12612 -0.0184184 0)
(0.976098 -0.00852813 0)
(1.13987 0.00902427 0)
(1.0092 0.00075725 0)
(1.13791 0.00378747 0)
(1.02242 0.00177851 0)
(1.08171 -0.00135482 0)
(1.03756 -0.00724568 0)
(1.0552 -0.00273472 0)
(1.04441 -0.00242333 0)
(1.04405 0.000783458 0)
(1.03152 0.0043475 0)
(1.02368 0.0051061 0)
(0.796401 -0.00522472 0)
(1.13794 -0.0110452 0)
(0.939848 -0.00671166 0)
(1.21256 0.0233948 0)
(1.05263 0.00977627 0)
(1.05998 -0.0206138 0)
(0.939099 -0.0410846 0)
(1.06702 -0.0192491 0)
(1.00714 -0.00882724 0)
(1.10274 0.00843602 0)
(1.05204 0.000663497 0)
(1.11193 0.0035616 0)
(1.05942 0.00274675 0)
(1.07004 -0.00141285 0)
(1.05101 -0.00673586 0)
(1.04863 -0.00283977 0)
(1.04768 -0.00214029 0)
(1.04561 0.00109029 0)
(1.03728 0.00502321 0)
(1.02926 0.00605746 0)
(0.862206 -0.00477785 0)
(1.06661 -0.0119342 0)
(0.965954 -0.00766181 0)
(1.17636 0.0223425 0)
(1.10179 0.011129 0)
(1.05677 -0.0191515 0)
(0.957918 -0.0408642 0)
(1.02105 -0.0201707 0)
(1.0215 -0.00942877 0)
(1.08119 0.0075937 0)
(1.07612 0.000453126 0)
(1.10124 0.00342796 0)
(1.0765 0.00355834 0)
(1.0686 -0.00108571 0)
(1.0528 -0.00616754 0)
(1.04466 -0.00282381 0)
(1.04522 -0.0019558 0)
(1.04452 0.00127742 0)
(1.04038 0.00551465 0)
(1.03392 0.00695522 0)
(0.917504 -0.00425254 0)
(1.01212 -0.0125902 0)
(0.981379 -0.00889941 0)
(1.14749 0.0210481 0)
(1.12742 0.0122396 0)
(1.06007 -0.017384 0)
(0.969519 -0.0401316 0)
(0.992149 -0.0210754 0)
(1.02312 -0.0103763 0)
(1.07181 0.00652099 0)
(1.08764 0.000125441 0)
(1.0987 0.00337386 0)
(1.0836 0.00431462 0)
(1.06938 -0.000475872 0)
(1.05095 -0.00544612 0)
(1.03958 -0.00270748 0)
(1.03961 -0.0018306 0)
(1.04016 0.0012907 0)
(1.03946 0.00575138 0)
(1.03618 0.00772626 0)
(0.95799 -0.00371035 0)
(0.980402 -0.0129848 0)
(0.986291 -0.0103561 0)
(1.12438 0.0195928 0)
(1.1344 0.0130899 0)
(1.0642 -0.0154906 0)
(0.978 -0.039047 0)
(0.977547 -0.0218975 0)
(1.01817 -0.0116087 0)
(1.06724 0.00520739 0)
(1.09096 -0.000287663 0)
(1.09709 0.0033585 0)
(1.08547 0.00509227 0)
(1.06892 0.000328173 0)
(1.04769 -0.0045487 0)
(1.03354 -0.00243866 0)
(1.03205 -0.00174372 0)
(1.033 0.00119559 0)
(1.03473 0.00576698 0)
(1.03474 0.00825051 0)
(0.983766 -0.00322553 0)
(0.969405 -0.0131218 0)
(0.983368 -0.011855 0)
(1.10307 0.0180634 0)
(1.12776 0.0137045 0)
(1.06527 -0.0136323 0)
(0.985336 -0.0377388 0)
(0.972224 -0.0225682 0)
(1.01096 -0.0129819 0)
(1.06163 0.00369691 0)
(1.0875 -0.000747773 0)
(1.092 0.00334091 0)
(1.0831 0.00587997 0)
(1.06613 0.00126346 0)
(1.04337 -0.00349435 0)
(1.02718 -0.00200991 0)
(1.02374 -0.00162632 0)
(1.02408 0.00110154 0)
(1.02704 0.00559984 0)
(1.02962 0.00845951 0)
(0.997908 -0.00285106 0)
(0.971779 -0.013032 0)
(0.976773 -0.0132063 0)
(1.08037 0.0165427 0)
(1.11182 0.0140954 0)
(1.06221 -0.0119507 0)
(0.991773 -0.0363378 0)
(0.972002 -0.0230467 0)
(1.0035 -0.0143263 0)
(1.05231 0.00209405 0)
(1.07766 -0.00122332 0)
(1.08175 0.00327534 0)
(1.07634 0.00661594 0)
(1.06075 0.00225756 0)
(1.03805 -0.00234657 0)
(1.02099 -0.00142742 0)
(1.01576 -0.00140944 0)
(1.01475 0.00105974 0)
(1.0177 0.00529908 0)
(1.02175 0.00838698 0)
(1.00445 -0.00260263 0)
(0.979549 -0.0127731 0)
(0.970599 -0.0142717 0)
(1.05601 0.0151007 0)
(1.09071 0.0142628 0)
(1.05592 -0.010546 0)
(0.996982 -0.0349454 0)
(0.974174 -0.0233079 0)
(0.996622 -0.0154925 0)
(1.03932 0.000525155 0)
(1.06258 -0.00168724 0)
(1.06675 0.00312385 0)
(1.06538 0.00722167 0)
(1.05292 0.00322018 0)
(1.03188 -0.00119428 0)
(1.01527 -0.000719547 0)
(1.00888 -0.00108075 0)
(1.00626 0.0010913 0)
(1.00828 0.00496418 0)
(1.01263 0.00814223 0)
(1.00683 -0.00246209 0)
(0.987331 -0.0124168 0)
(0.967336 -0.0150027 0)
(1.03243 0.0137904 0)
(1.06857 0.014223 0)
(1.0481 -0.00947134 0)
(1.00071 -0.0336304 0)
(0.977148 -0.0233636 0)
(0.990951 -0.0163771 0)
(1.02456 -0.000894993 0)
(1.04465 -0.00211411 0)
(1.04897 0.00286915 0)
(1.05139 0.00763272 0)
(1.0432 0.0040649 0)
(1.02515 -0.000128198 0)
(1.01015 3.82287e-05 0)
(1.00357 -0.00066325 0)
(0.99954 0.0012282 0)
(1.00016 0.00471142 0)
(1.00388 0.00782789 0)
(1.00731 -0.00239567 0)
(0.992924 -0.0120256 0)
(0.967356 -0.0154249 0)
(1.01274 0.0126514 0)
(1.04896 0.0139891 0)
(1.04038 -0.00872666 0)
(1.00295 -0.0324305 0)
(0.980048 -0.0232635 0)
(0.986998 -0.0169426 0)
(1.01065 -0.00209124 0)
(1.02695 -0.00248125 0)
(1.03114 0.0025225 0)
(1.03626 0.00782796 0)
(1.03254 0.00472231 0)
(1.01827 0.00078016 0)
(1.00559 0.000774472 0)
(0.999835 -0.000189996 0)
(0.995012 0.001475 0)
(0.994275 0.00460439 0)
(0.996832 0.0075169 0)
(1.00708 -0.00237116 0)
(0.996252 -0.0116415 0)
(0.969612 -0.0156 0)
(0.998693 0.0116891 0)
(1.03385 0.0136106 0)
(1.03377 -0.00825719 0)
(1.00394 -0.0313492 0)
(0.982435 -0.0230619 0)
(0.984852 -0.0172213 0)
(0.999622 -0.00304243 0)
(1.01201 -0.00276734 0)
(1.01566 0.00212453 0)
(1.02203 0.00783022 0)
(1.02205 0.00517113 0)
(1.01172 0.00148252 0)
(1.00152 0.00142578 0)
(0.997314 0.000261551 0)
(0.992506 0.00178353 0)
(0.990846 0.00464444 0)
(0.992221 0.00726666 0)
(1.00662 -0.00236537 0)
(0.998043 -0.0112869 0)
(0.972761 -0.0155983 0)
(0.990024 0.0108864 0)
(1.0234 0.0131454 0)
(1.02862 -0.00798845 0)
(1.00409 -0.030364 0)
(0.984152 -0.0228078 0)
(0.984101 -0.0172773 0)
(0.992135 -0.00376988 0)
(1.00099 -0.00296106 0)
(1.00376 0.00172629 0)
(1.0102 0.00769194 0)
(1.01275 0.00543107 0)
(1.0059 0.00197165 0)
(0.997919 0.0019486 0)
(0.995512 0.000648795 0)
(0.991433 0.00208587 0)
(0.989456 0.0047943 0)
(0.990023 0.00710286 0)
(1.00614 -0.0023659 0)
(0.999002 -0.010968 0)
(0.975867 -0.0154782 0)
(0.985252 0.0102104 0)
(1.0166 0.0126372 0)
(1.02478 -0.00785361 0)
(1.00379 -0.0294463 0)
(0.985239 -0.0225288 0)
(0.984116 -0.0171817 0)
(0.987641 -0.00431811 0)
(0.993693 -0.00306723 0)
(0.995472 0.00136637 0)
(1.00136 0.00747276 0)
(1.0053 0.0055473 0)
(1.00116 0.00227873 0)
(0.994925 0.00233954 0)
(0.994108 0.000970167 0)
(0.991116 0.00232173 0)
(0.989337 0.00499369 0)
(0.989596 0.00701043 0)
(1.00568 -0.00236721 0)
(0.999546 -0.0106824 0)
(0.978496 -0.0152791 0)
(0.982791 0.00962212 0)
(1.01221 0.0121124 0)
(1.02197 -0.00780528 0)
(1.00333 -0.0285714 0)
(0.985854 -0.0222346 0)
(0.984387 -0.0169939 0)
(0.985148 -0.00473413 0)
(0.989187 -0.0030986 0)
(0.990116 0.00106417 0)
(0.995353 0.00721249 0)
(0.999933 0.00557105 0)
(0.997658 0.00244608 0)
(0.992702 0.00261483 0)
(0.993044 0.00121976 0)
(0.99111 0.00246307 0)
(0.989773 0.00518299 0)
(0.990091 0.00696022 0)
(1.00528 -0.0023662 0)
(0.999872 -0.0104266 0)
(0.980531 -0.0150245 0)
(0.981576 0.00909206 0)
(1.00931 0.0115834 0)
(1.01991 -0.00781317 0)
(1.00287 -0.0277223 0)
(0.986185 -0.0219268 0)
(0.984648 -0.0167522 0)
(0.983808 -0.00505911 0)
(0.986502 -0.0030812 0)
(0.986864 0.000820335 0)
(0.991616 0.00692464 0)
(0.996469 0.00553464 0)
(0.995397 0.00251628 0)
(0.991323 0.00279608 0)
(0.992393 0.00142381 0)
(0.991262 0.0025216 0)
(0.990339 0.00532065 0)
(0.990849 0.00693152 0)
(1.00491 -0.00236134 0)
(1.00008 -0.0101957 0)
(0.981996 -0.0147268 0)
(0.981082 0.00859865 0)
(1.00736 0.0110545 0)
(1.01841 -0.00786109 0)
(1.00247 -0.0268866 0)
(0.986389 -0.0216046 0)
(0.984827 -0.0164796 0)
(0.983106 -0.00532303 0)
(0.984923 -0.00303599 0)
(0.985041 0.00062097 0)
(0.989514 0.00660845 0)
(0.994505 0.00545767 0)
(0.994184 0.00252659 0)
(0.990707 0.0029041 0)
(0.992183 0.00160749 0)
(0.991577 0.00252686 0)
(0.990892 0.00539063 0)
(0.99155 0.00691358 0)
(1.00455 -0.00235206 0)
(1.00024 -0.00998347 0)
(0.982976 -0.0143961 0)
(0.981079 0.00812141 0)
(1.00607 0.0105291 0)
(1.01732 -0.00793598 0)
(1.00215 -0.0260597 0)
(0.986569 -0.0212629 0)
(0.984945 -0.016191 0)
(0.982784 -0.005547 0)
(0.984017 -0.00297925 0)
(0.984167 0.000448448 0)
(0.988502 0.00625867 0)
(0.99357 0.00535049 0)
(0.993723 0.00250851 0)
(0.990658 0.00296441 0)
(0.992326 0.00178934 0)
(0.992063 0.0025131 0)
(0.991432 0.00540169 0)
(0.992122 0.0069043 0)
(1.00416 -0.00233768 0)
(1.00041 -0.00978497 0)
(0.983588 -0.0140405 0)
(0.981432 0.00764533 0)
(1.00524 0.0100062 0)
(1.01652 -0.00802652 0)
(1.00189 -0.0252399 0)
(0.986778 -0.0208929 0)
(0.985053 -0.0158951 0)
(0.982718 -0.00574446 0)
(0.983533 -0.00292903 0)
(0.983907 0.000286988 0)
(0.988172 0.00588139 0)
(0.993261 0.00521576 0)
(0.993712 0.00247219 0)
(0.990949 0.00298849 0)
(0.99267 0.00197325 0)
(0.992671 0.0025042 0)
(0.991977 0.00536583 0)
(0.992597 0.00690268 0)
(1.00372 -0.00231802 0)
(1.00062 -0.00959654 0)
(0.983962 -0.0136658 0)
(0.982018 0.00716135 0)
(1.00473 0.00948501 0)
(1.01587 -0.00812388 0)
(1.00168 -0.0244225 0)
(0.987034 -0.0204919 0)
(0.985194 -0.0155961 0)
(0.982837 -0.00592419 0)
(0.983326 -0.00289128 0)
(0.984026 0.000128924 0)
(0.988239 0.00548376 0)
(0.993285 0.00505328 0)
(0.993912 0.00242064 0)
(0.991394 0.00297955 0)
(0.993075 0.00215589 0)
(0.993314 0.00251827 0)
(0.992522 0.0052962 0)
(0.993009 0.00690112 0)
(1.00324 -0.00229257 0)
(1.00084 -0.00941678 0)
(0.98422 -0.0132743 0)
(0.982727 0.00666203 0)
(1.00442 0.00896551 0)
(1.0153 -0.00822143 0)
(1.0015 -0.0236105 0)
(0.987336 -0.0200606 0)
(0.985401 -0.015299 0)
(0.983089 -0.00609109 0)
(0.983305 -0.00287159 0)
(0.984355 -2.78701e-05 0)
(0.988511 0.00506795 0)
(0.993453 0.00486606 0)
(0.99417 0.00236712 0)
(0.991867 0.00294729 0)
(0.993449 0.00233005 0)
(0.993917 0.00256147 0)
(0.993048 0.00521663 0)
(0.993371 0.00689809 0)
(1.00275 -0.00226063 0)
(1.00104 -0.00924512 0)
(0.984462 -0.012869 0)
(0.983473 0.00614504 0)
(1.00421 0.00844852 0)
(1.01472 -0.00831531 0)
(1.00132 -0.0228083 0)
(0.98767 -0.0195997 0)
(0.985691 -0.0150027 0)
(0.983435 -0.00624658 0)
(0.98341 -0.00286996 0)
(0.984779 -0.00018619 0)
(0.98887 0.00464041 0)
(0.99365 0.0046579 0)
(0.994403 0.00232002 0)
(0.992294 0.0029029 0)
(0.993757 0.00249116 0)
(0.994436 0.00262081 0)
(0.993542 0.00513771 0)
(0.993683 0.00691206 0)
(1.00231 -0.0022218 0)
(1.00117 -0.00907993 0)
(0.98475 -0.0124527 0)
(0.984198 0.00561173 0)
(1.00405 0.00793587 0)
(1.01411 -0.00839769 0)
(1.00113 -0.0220196 0)
(0.988021 -0.0191134 0)
(0.986064 -0.0147071 0)
(0.983843 -0.00639251 0)
(0.983605 -0.00288335 0)
(0.985224 -0.000344312 0)
(0.989245 0.00420764 0)
(0.993818 0.00443085 0)
(0.994577 0.00227839 0)
(0.992645 0.00285332 0)
(0.993992 0.00264188 0)
(0.994862 0.00268749 0)
(0.994012 0.00503828 0)
(0.993953 0.00694675 0)
(1.00195 -0.00217639 0)
(1.0012 -0.00892096 0)
(0.985106 -0.0120261 0)
(0.984875 0.00506765 0)
(1.00389 0.00742461 0)
(1.01349 -0.0084667 0)
(1.00092 -0.0212465 0)
(0.988375 -0.0186062 0)
(0.986503 -0.0144126 0)
(0.984283 -0.00653044 0)
(0.98386 -0.00291339 0)
(0.985649 -0.000501751 0)
(0.989606 0.00377568 0)
(0.993932 0.00418657 0)
(0.994689 0.00223492 0)
(0.992912 0.00279849 0)
(0.99417 0.0027838 0)
(0.995196 0.00276868 0)
(0.994469 0.00490283 0)
(0.9942 0.00696186 0)
(1.0017 -0.00212161 0)
(1.00114 -0.00877206 0)
(0.985522 -0.0115949 0)
(0.985497 0.00451645 0)
(1.00371 0.00691116 0)
(1.01285 -0.00851868 0)
(1.00068 -0.0204922 0)
(0.988722 -0.0180807 0)
(0.986984 -0.0141171 0)
(0.984736 -0.00665555 0)
(0.984155 -0.00295737 0)
(0.986038 -0.000659764 0)
(0.989947 0.00335307 0)
(0.993992 0.0039308 0)
(0.994756 0.00218442 0)
(0.993109 0.00273178 0)
(0.994309 0.00291184 0)
(0.99545 0.00287589 0)
(0.994916 0.00474832 0)
(0.994445 0.00690728 0)
(1.00156 -0.00205844 0)
(1.00101 -0.00862943 0)
(0.985973 -0.0111642 0)
(0.986071 0.00396311 0)
(1.00348 0.00639522 0)
(1.01223 -0.00855085 0)
(1.00043 -0.0197568 0)
(0.989059 -0.0175421 0)
(0.987482 -0.0138208 0)
(0.985189 -0.00676508 0)
(0.984473 -0.0030072 0)
(0.986386 -0.000815958 0)
(0.99027 0.00294642 0)
(0.99401 0.00367268 0)
(0.99479 0.00213147 0)
(0.993251 0.00265141 0)
(0.994428 0.00300845 0)
(0.995639 0.00300598 0)
(0.995345 0.00461219 0)
(0.994704 0.0067712 0)
(1.0015 -0.00198965 0)
(1.00085 -0.00848568 0)
(0.986433 -0.0107352 0)
(0.986612 0.0034138 0)
(1.00318 0.00587413 0)
(1.01162 -0.00856576 0)
(1.00018 -0.0190375 0)
(0.989387 -0.0169943 0)
(0.987978 -0.0135237 0)
(0.98564 -0.00686704 0)
(0.984802 -0.00306406 0)
(0.9867 -0.000971974 0)
(0.990582 0.00255266 0)
(0.993999 0.0034176 0)
(0.994804 0.00208124 0)
(0.993355 0.00257005 0)
(0.994535 0.00306578 0)
(0.995781 0.00312908 0)
(0.995744 0.00452287 0)
(0.994976 0.00659207 0)
(1.00148 -0.00191449 0)
(1.00071 -0.00834261 0)
(0.986887 -0.0103081 0)
(0.987132 0.00287307 0)
(1.00284 0.00534446 0)
(1.01101 -0.0085666 0)
(0.999922 -0.0183373 0)
(0.989705 -0.01644 0)
(0.988461 -0.0132244 0)
(0.986093 -0.00696149 0)
(0.985137 -0.00312473 0)
(0.986987 -0.00113052 0)
(0.990885 0.002163 0)
(0.993972 0.00316501 0)
(0.994801 0.00202919 0)
(0.993432 0.00249145 0)
(0.99463 0.00309965 0)
(0.995892 0.00321728 0)
(0.996105 0.00445897 0)
(0.995253 0.00641462 0)
(1.00147 -0.00183506 0)
(1.0006 -0.0081972 0)
(0.987334 -0.00988559 0)
(0.987645 0.00234633 0)
(1.00247 0.00480724 0)
(1.0104 -0.00855337 0)
(0.999678 -0.0176555 0)
(0.990015 -0.0158819 0)
(0.98893 -0.0129248 0)
(0.986554 -0.00704642 0)
(0.985475 -0.00318068 0)
(0.987257 -0.00127897 0)
(0.991179 0.00177811 0)
(0.993943 0.00291715 0)
(0.994782 0.00197714 0)
(0.993493 0.00240516 0)
(0.99471 0.00312365 0)
(0.995982 0.00328399 0)
(0.99643 0.00437976 0)
(0.995532 0.00623879 0)
(1.00143 -0.00175126 0)
(1.00053 -0.00804861 0)
(0.987779 -0.00947107 0)
(0.988159 0.00183553 0)
(1.0021 0.00426472 0)
(1.00977 -0.00852616 0)
(0.999449 -0.0169913 0)
(0.990312 -0.0153184 0)
(0.989384 -0.0126218 0)
(0.987032 -0.00712712 0)
(0.985819 -0.00323189 0)
(0.987518 -0.00141445 0)
(0.991465 0.00140233 0)
(0.993923 0.00267955 0)
(0.994746 0.00193926 0)
(0.993547 0.00230343 0)
(0.994779 0.00312469 0)
(0.996051 0.00335831 0)
(0.996717 0.00428399 0)
(0.995816 0.00603339 0)
(1.00137 -0.00166577 0)
(1.0005 -0.00789433 0)
(0.98823 -0.00906638 0)
(0.98868 0.00134327 0)
(1.00174 0.00371934 0)
(1.00913 -0.00849451 0)
(0.999237 -0.0163549 0)
(0.990597 -0.0147519 0)
(0.989823 -0.0123129 0)
(0.987527 -0.00720583 0)
(0.986169 -0.00327939 0)
(0.987776 -0.00154207 0)
(0.991743 0.00103333 0)
(0.993922 0.00244541 0)
(0.994695 0.00192205 0)
(0.993596 0.00219687 0)
(0.994845 0.00307893 0)
(0.996106 0.00343901 0)
(0.996959 0.00420719 0)
(0.996106 0.00578567 0)
(1.00128 -0.00157734 0)
(1.00049 -0.00773561 0)
(0.98869 -0.00867136 0)
(0.989208 0.00086875 0)
(1.00141 0.00317029 0)
(1.00847 -0.00845434 0)
(0.999044 -0.0157454 0)
(0.990868 -0.0141865 0)
(0.990246 -0.011998 0)
(0.988037 -0.00728681 0)
(0.986526 -0.00332965 0)
(0.988032 -0.00165131 0)
(0.992014 0.000673181 0)
(0.993949 0.00220315 0)
(0.994633 0.00191796 0)
(0.993635 0.00211059 0)
(0.994916 0.00298978 0)
(0.996159 0.0034986 0)
(0.997154 0.00417836 0)
(0.99639 0.0055211 0)
(1.00116 -0.00148616 0)
(1.00049 -0.00757608 0)
(0.98916 -0.00827864 0)
(0.98974 0.000407509 0)
(1.00111 0.00262522 0)
(1.00781 -0.00840195 0)
(0.998866 -0.0151543 0)
(0.991128 -0.0136248 0)
(0.990649 -0.0116685 0)
(0.988557 -0.00736833 0)
(0.986893 -0.00338634 0)
(0.988284 -0.00173323 0)
(0.992278 0.000326621 0)
(0.994007 0.00194594 0)
(0.994571 0.00191377 0)
(0.993663 0.00205083 0)
(0.99499 0.0028792 0)
(0.996222 0.00350982 0)
(0.99731 0.00418239 0)
(0.996653 0.00528032 0)
(1.00104 -0.00139207 0)
(1.00049 -0.00741584 0)
(0.989636 -0.00789396 0)
(0.990272 -3.7596e-05 0)
(1.00083 0.00209185 0)
(1.00715 -0.00833651 0)
(0.998704 -0.0145895 0)
(0.991377 -0.0130655 0)
(0.99103 -0.011323 0)
(0.98908 -0.00744305 0)
(0.98727 -0.00345339 0)
(0.988527 -0.00178874 0)
(0.992531 3.66722e-06 0)
(0.994098 0.00167027 0)
(0.994517 0.00190367 0)
(0.993678 0.00201162 0)
(0.995064 0.00276159 0)
(0.996299 0.00347099 0)
(0.997437 0.00418844 0)
(0.996881 0.00509014 0)
(1.00091 -0.00129625 0)
(1.0005 -0.00725405 0)
(0.990115 -0.00751576 0)
(0.990798 -0.000469025 0)
(1.00057 0.00156263 0)
(1.0065 -0.00825407 0)
(0.998554 -0.0140582 0)
(0.991619 -0.0125198 0)
(0.991385 -0.0109632 0)
(0.9896 -0.00751252 0)
(0.987658 -0.00353767 0)
(0.988762 -0.00182038 0)
(0.99277 -0.000284053 0)
(0.99422 0.00137584 0)
(0.994479 0.00188632 0)
(0.993679 0.00199435 0)
(0.995133 0.00264449 0)
(0.996392 0.00339428 0)
(0.997551 0.00418067 0)
(0.997064 0.00495754 0)
(1.00079 -0.00119825 0)
(1.00051 -0.00709362 0)
(0.990591 -0.00713911 0)
(0.991312 -0.000891383 0)
(1.00033 0.00103875 0)
(1.00586 -0.00815065 0)
(0.998417 -0.0135584 0)
(0.991857 -0.0120024 0)
(0.991713 -0.0105846 0)
(0.99011 -0.00757184 0)
(0.988061 -0.00364771 0)
(0.988987 -0.00183906 0)
(0.992988 -0.00053026 0)
(0.994371 0.00106306 0)
(0.994465 0.00185222 0)
(0.993665 0.00200228 0)
(0.995189 0.00253354 0)
(0.996497 0.003283 0)
(0.997661 0.00414685 0)
(0.997203 0.00487516 0)
(1.00067 -0.00109724 0)
(1.00052 -0.0069386 0)
(0.991062 -0.00676806 0)
(0.991811 -0.00129146 0)
(1.0001 0.000520562 0)
(1.00524 -0.0080193 0)
(0.99829 -0.0130889 0)
(0.992094 -0.0115131 0)
(0.992014 -0.0101897 0)
(0.990604 -0.00760453 0)
(0.988479 -0.00377764 0)
(0.989207 -0.00185058 0)
(0.993181 -0.000733228 0)
(0.994545 0.000738732 0)
(0.994484 0.00178328 0)
(0.993638 0.00203342 0)
(0.995225 0.00243777 0)
(0.99661 0.00313718 0)
(0.997782 0.00406267 0)
(0.997308 0.00481784 0)
(1.00055 -0.000995855 0)
(1.00054 -0.00678555 0)
(0.991527 -0.00640876 0)
(0.992291 -0.00165998 0)
(0.999883 8.36519e-06 0)
(1.00464 -0.00786157 0)
(0.998173 -0.012633 0)
(0.992334 -0.0110595 0)
(0.992289 -0.00978501 0)
(0.991077 -0.00760702 0)
(0.988913 -0.00392253 0)
(0.989425 -0.00186678 0)
(0.993345 -0.000890943 0)
(0.994734 0.000417126 0)
(0.994541 0.00166881 0)
(0.993606 0.00208142 0)
(0.99523 0.00237877 0)
(0.99672 0.00297573 0)
(0.99792 0.00391991 0)
(0.997399 0.00474941 0)
(1.00044 -0.000894053 0)
(1.00056 -0.00663493 0)
(0.991986 -0.00606613 0)
(0.99275 -0.0019943 0)
(0.999684 -0.000510081 0)
(1.00406 -0.00768488 0)
(0.998063 -0.0121799 0)
(0.992578 -0.010646 0)
(0.992541 -0.00937549 0)
(0.991525 -0.0075722 0)
(0.989361 -0.00407569 0)
(0.98965 -0.00189681 0)
(0.993479 -0.00100538 0)
(0.994928 0.000107197 0)
(0.994643 0.00150208 0)
(0.993582 0.00212745 0)
(0.995202 0.00236768 0)
(0.996809 0.00282008 0)
(0.998073 0.00373005 0)
(0.997495 0.00463962 0)
(1.00033 -0.000793955 0)
(1.00059 -0.00648332 0)
(0.992439 -0.00574696 0)
(0.993186 -0.00228797 0)
(0.999502 -0.00104048 0)
(1.0035 -0.00750118 0)
(0.997959 -0.0117215 0)
(0.992829 -0.010272 0)
(0.992776 -0.00897633 0)
(0.991944 -0.00750177 0)
(0.98982 -0.00422969 0)
(0.989887 -0.00194367 0)
(0.993584 -0.00108371 0)
(0.995116 -0.000178342 0)
(0.994789 0.00128643 0)
(0.993579 0.00214978 0)
(0.995141 0.00239636 0)
(0.996863 0.00268582 0)
(0.998234 0.0035066 0)
(0.997612 0.00447671 0)
(1.00023 -0.000695313 0)
(1.00062 -0.00633156 0)
(0.992887 -0.00545937 0)
(0.993597 -0.00251889 0)
(0.999338 -0.00156215 0)
(1.00298 -0.00733092 0)
(0.997858 -0.0112531 0)
(0.993084 -0.00993487 0)
(0.992997 -0.00859754 0)
(0.992332 -0.0073943 0)
(0.990286 -0.00437609 0)
(0.990143 -0.00200687 0)
(0.993666 -0.00112864 0)
(0.995288 -0.000428438 0)
(0.994976 0.00103169 0)
(0.993613 0.00213199 0)
(0.995052 0.00245269 0)
(0.99687 0.00258739 0)
(0.998387 0.0032599 0)
(0.99776 0.00425676 0)
(1.00013 -0.000602099 0)
(1.00066 -0.00617174 0)
(0.993332 -0.00520616 0)
(0.993984 -0.00267664 0)
(0.999189 -0.00207387 0)
(1.0025 -0.00718983 0)
(0.997762 -0.0107645 0)
(0.993342 -0.00961753 0)
(0.993212 -0.00825026 0)
(0.992692 -0.00725155 0)
(0.990755 -0.00449922 0)
(0.990423 -0.00208168 0)
(0.99373 -0.00115021 0)
(0.995435 -0.000635952 0)
(0.995198 0.000747362 0)
(0.993696 0.00205596 0)
(0.994949 0.00252227 0)
(0.996816 0.00254059 0)
(0.998514 0.00301354 0)
(0.997942 0.00397845 0)
(1.00004 -0.000517506 0)
(1.0007 -0.00599237 0)
(0.993776 -0.00500484 0)
(0.994344 -0.00276972 0)
(0.999052 -0.00255105 0)
(1.00206 -0.00708805 0)
(0.997674 -0.0102609 0)
(0.993596 -0.00930238 0)
(0.993423 -0.00793243 0)
(0.993027 -0.00708857 0)
(0.991222 -0.00459132 0)
(0.990729 -0.00216166 0)
(0.993788 -0.00115815 0)
(0.995553 -0.000793086 0)
(0.995444 0.000452721 0)
(0.993841 0.00191002 0)
(0.994854 0.00256891 0)
(0.996699 0.0025447 0)
(0.998587 0.00280631 0)
(0.998149 0.00365131 0)
(0.99996 -0.000441832 0)
(1.00074 -0.00579713 0)
(0.994221 -0.00484726 0)
(0.994682 -0.00281719 0)
(0.998921 -0.00297268 0)
(1.00167 -0.00703116 0)
(0.997599 -0.00976407 0)
(0.993847 -0.00897538 0)
(0.99363 -0.00763339 0)
(0.993343 -0.00690987 0)
(0.991687 -0.00464913 0)
(0.991059 -0.00224372 0)
(0.993844 -0.0011659 0)
(0.995639 -0.000907357 0)
(0.9957 0.000165668 0)
(0.994049 0.00169673 0)
(0.994792 0.00255151 0)
(0.996536 0.00257035 0)
(0.998584 0.0026681 0)
(0.998351 0.00331555 0)
(0.999885 -0.000378202 0)
(1.00078 -0.00558101 0)
(0.994667 -0.00472886 0)
(0.995 -0.00283916 0)
(0.998792 -0.00331532 0)
(1.00133 -0.00701737 0)
(0.997544 -0.00928165 0)
(0.994091 -0.00861948 0)
(0.993833 -0.00735471 0)
(0.993641 -0.00672293 0)
(0.992149 -0.00467882 0)
(0.991411 -0.00233741 0)
(0.993904 -0.00117692 0)
(0.995695 -0.000977672 0)
(0.995951 -8.73566e-05 0)
(0.994313 0.00143645 0)
(0.994783 0.0024654 0)
(0.996358 0.00257677 0)
(0.998504 0.00258858 0)
(0.998509 0.00302731 0)
(0.999818 -0.00032744 0)
(1.00082 -0.00534144 0)
(0.995113 -0.00465436 0)
(0.995304 -0.00285111 0)
(0.998659 -0.00355043 0)
(1.00104 -0.00702996 0)
(0.99752 -0.00884019 0)
(0.994331 -0.00824212 0)
(0.99403 -0.00707752 0)
(0.993925 -0.00652639 0)
(0.992606 -0.00468164 0)
(0.991788 -0.00244084 0)
(0.993978 -0.00120177 0)
(0.995725 -0.00101456 0)
(0.996184 -0.000302825 0)
(0.994621 0.00113862 0)
(0.994834 0.00231857 0)
(0.99619 0.00254324 0)
(0.998369 0.00252845 0)
(0.998597 0.00281619 0)
(0.999758 -0.000292799 0)
(1.00085 -0.00507628 0)
(0.995557 -0.00461364 0)
(0.995602 -0.00286894 0)
(0.998519 -0.00367883 0)
(1.00078 -0.00703443 0)
(0.997532 -0.00845423 0)
(0.994573 -0.00784926 0)
(0.994221 -0.00678192 0)
(0.994194 -0.00633064 0)
(0.993053 -0.00467057 0)
(0.992185 -0.00255274 0)
(0.994074 -0.00124389 0)
(0.995735 -0.00102427 0)
(0.996386 -0.000473189 0)
(0.99496 0.000818706 0)
(0.994955 0.00211088 0)
(0.996051 0.002477 0)
(0.998208 0.0024584 0)
(0.998614 0.00266167 0)
(0.999705 -0.000274768 0)
(1.00088 -0.0047887 0)
(0.995992 -0.00459518 0)
(0.995904 -0.00290324 0)
(0.998374 -0.00371295 0)
(1.00055 -0.00700434 0)
(0.997585 -0.00813705 0)
(0.994825 -0.00745405 0)
(0.994401 -0.00645798 0)
(0.994444 -0.00612026 0)
(0.993487 -0.00464959 0)
(0.992604 -0.00267074 0)
(0.994203 -0.00130563 0)
(0.995737 -0.00101941 0)
(0.996545 -0.000584493 0)
(0.995309 0.000516906 0)
(0.995149 0.00184496 0)
(0.995955 0.00237751 0)
(0.998038 0.00237632 0)
(0.998583 0.0025252 0)
(0.99966 -0.000269919 0)
(1.00089 -0.00448556 0)
(0.996415 -0.00458623 0)
(0.996213 -0.00296828 0)
(0.998229 -0.00368299 0)
(1.00034 -0.0069169 0)
(0.997674 -0.00787995 0)
(0.995098 -0.00709501 0)
(0.994575 -0.00611072 0)
(0.99467 -0.00587766 0)
(0.9939 -0.00461012 0)
(0.993036 -0.00278791 0)
(0.99437 -0.00138772 0)
(0.995747 -0.00101891 0)
(0.996668 -0.000652123 0)
(0.995645 0.00026179 0)
(0.995404 0.00153707 0)
(0.995921 0.00222669 0)
(0.99787 0.00228838 0)
(0.998522 0.00238602 0)
(0.999622 -0.000282037 0)
(1.00089 -0.00417031 0)
(0.996817 -0.00456586 0)
(0.996535 -0.00306496 0)
(0.998091 -0.00362006 0)
(1.00013 -0.00675838 0)
(0.99779 -0.00766744 0)
(0.995398 -0.00680123 0)
(0.994752 -0.0057496 0)
(0.994871 -0.00559849 0)
(0.994287 -0.00453561 0)
(0.993478 -0.0028999 0)
(0.994577 -0.00148209 0)
(0.995776 -0.00102755 0)
(0.996762 -0.000683476 0)
(0.99595 6.98632e-05 0)
(0.995699 0.00122983 0)
(0.995959 0.00202022 0)
(0.997719 0.00219074 0)
(0.998441 0.00224873 0)
(0.99959 -0.000302973 0)
(1.00087 -0.00386107 0)
(0.997192 -0.00453164 0)
(0.996867 -0.00320544 0)
(0.997968 -0.00352355 0)
(0.999921 -0.00650227 0)
(0.997918 -0.00745173 0)
(0.995735 -0.00658777 0)
(0.994945 -0.00540876 0)
(0.995047 -0.00528661 0)
(0.994635 -0.0044195 0)
(0.993916 -0.00300525 0)
(0.994821 -0.00160257 0)
(0.995836 -0.00105338 0)
(0.996844 -0.000700218 0)
(0.99622 -7.64817e-05 0)
(0.996007 0.00095438 0)
(0.996066 0.00177526 0)
(0.997605 0.00206788 0)
(0.998348 0.00212261 0)
(0.999564 -0.000331149 0)
(1.00085 -0.00354902 0)
(0.997531 -0.00446112 0)
(0.997214 -0.00340307 0)
(0.997878 -0.00344862 0)
(0.999707 -0.0061985 0)
(0.998034 -0.00719072 0)
(0.996097 -0.00642326 0)
(0.995168 -0.00509741 0)
(0.995207 -0.00493602 0)
(0.994938 -0.00424469 0)
(0.994336 -0.00306896 0)
(0.995101 -0.00172969 0)
(0.995934 -0.00109525 0)
(0.99692 -0.00070738 0)
(0.996458 -0.000182397 0)
(0.996314 0.000724001 0)
(0.99623 0.00152647 0)
(0.997545 0.00191313 0)
(0.998253 0.00200365 0)
(0.999544 -0.000367608 0)
(1.00081 -0.00327716 0)
(0.997821 -0.00432002 0)
(0.99756 -0.00356743 0)
(0.997827 -0.00337599 0)
(0.999504 -0.00587639 0)
(0.998136 -0.00691116 0)
(0.996479 -0.00632391 0)
(0.995433 -0.00488158 0)
(0.99536 -0.00459765 0)
(0.995192 -0.00402926 0)
(0.994723 -0.0030912 0)
(0.995398 -0.00186306 0)
(0.996073 -0.00117185 0)
(0.997005 -0.000721555 0)
(0.996668 -0.000264371 0)
(0.996607 0.000524869 0)
(0.996428 0.00128324 0)
(0.997537 0.00172631 0)
(0.998176 0.00186218 0)
(0.999526 -0.000395768 0)
(1.00077 -0.00303619 0)
(0.998076 -0.00418397 0)
(0.997904 -0.00374994 0)
(0.99781 -0.00331557 0)
(0.999298 -0.00548421 0)
(0.998195 -0.00651724 0)
(0.996853 -0.00620219 0)
(0.995746 -0.00474134 0)
(0.995532 -0.00429034 0)
(0.995404 -0.0037681 0)
(0.995065 -0.00305362 0)
(0.9957 -0.00196775 0)
(0.996252 -0.00126417 0)
(0.997106 -0.000743632 0)
(0.996856 -0.000321952 0)
(0.996881 0.000365411 0)
(0.996648 0.0010624 0)
(0.997572 0.00153749 0)
(0.998127 0.00170473 0)
(0.999514 -0.00041918 0)
(1.00073 -0.00284474 0)
(0.99828 -0.00401926 0)
(0.998244 -0.00391238 0)
(0.997858 -0.00330274 0)
(0.999132 -0.00512145 0)
(0.99822 -0.00608429 0)
(0.997191 -0.00604428 0)
(0.996092 -0.00467632 0)
(0.995736 -0.00405758 0)
(0.995586 -0.0034963 0)
(0.995354 -0.00296311 0)
(0.995988 -0.0020375 0)
(0.99646 -0.00137168 0)
(0.997237 -0.000798189 0)
(0.997032 -0.000375555 0)
(0.997131 0.00023132 0)
(0.996879 0.000852542 0)
(0.99764 0.00134459 0)
(0.998105 0.00153176 0)
(0.999499 -0.00042994 0)
(1.00069 -0.0026793 0)
(0.998452 -0.00379624 0)
(0.998565 -0.00403379 0)
(0.997941 -0.00332665 0)
(0.998991 -0.00476712 0)
(0.998215 -0.00561844 0)
(0.997484 -0.00580772 0)
(0.99646 -0.00463319 0)
(0.995996 -0.00391355 0)
(0.995767 -0.0032415 0)
(0.995594 -0.00281794 0)
(0.996246 -0.00205652 0)
(0.996681 -0.00146104 0)
(0.997397 -0.000869267 0)
(0.997213 -0.000432607 0)
(0.99736 0.00012573 0)
(0.997112 0.000668653 0)
(0.997738 0.00116373 0)
(0.998103 0.00137362 0)
(0.999492 -0.000438016 0)
(1.00065 -0.00251647 0)
(0.998577 -0.00350006 0)
(0.998854 -0.00404756 0)
(0.998087 -0.00337904 0)
(0.99891 -0.00449065 0)
(0.998187 -0.00519706 0)
(0.997706 -0.00555358 0)
(0.9968 -0.00458865 0)
(0.996288 -0.00386256 0)
(0.99596 -0.00304949 0)
(0.99579 -0.00264829 0)
(0.996457 -0.00202631 0)
(0.996893 -0.00153014 0)
(0.997571 -0.000946856 0)
(0.9974 -0.000507414 0)
(0.997569 2.77967e-05 0)
(0.997334 0.000506057 0)
(0.997859 0.000981679 0)
(0.998111 0.00122349 0)
(0.99948 -0.000432183 0)
(1.00063 -0.00236831 0)
(0.998689 -0.00322043 0)
(0.999089 -0.00400813 0)
(0.998224 -0.00346742 0)
(0.998852 -0.00431466 0)
(0.998147 -0.0048 0)
(0.99788 -0.00524134 0)
(0.997116 -0.00446979 0)
(0.996615 -0.00382584 0)
(0.996196 -0.00292092 0)
(0.995971 -0.00247932 0)
(0.996622 -0.00194707 0)
(0.997082 -0.00157135 0)
(0.99775 -0.00101958 0)
(0.997594 -0.000593265 0)
(0.997771 -7.39389e-05 0)
(0.997542 0.000363152 0)
(0.997997 0.000798507 0)
(0.998136 0.00107066 0)
(0.999475 -0.000410484 0)
(1.00061 -0.00223562 0)
(0.998759 -0.00296887 0)
(0.99928 -0.00390586 0)
(0.998396 -0.00351229 0)
(0.998875 -0.00416452 0)
(0.998133 -0.00441633 0)
(0.998005 -0.00489847 0)
(0.997372 -0.00429864 0)
(0.996928 -0.00378235 0)
(0.996456 -0.00285897 0)