/*--------------------------------*- C++ -*----------------------------------*\
| =========                 |                                                 |
| \\      /  F ield         | OpenFOAM: The Open Source CFD Toolbox           |
|  \\    /   O peration     | Version:  2506                                  |
|   \\  /    A nd           | Website:  www.openfoam.com                      |
|    \\/     M anipulation  |                                                 |
\*---------------------------------------------------------------------------*/
FoamFile
{
    version     2.0;
    format      ascii;
    arch        "LSB;label=32;scalar=64";
    class       surfaceScalarField;
    location    "7.75";
    object      phi;
}
// * * * * * * * * * * * * * * * * * * * * * * * * * * * * * * * * * * * * * //

dimensions      [0 3 -1 0 0 0 0];

oriented        oriented;

internalField   nonuniform List<scalar> 
19000
(
1.23747e-06
-7.01477e-07
1.08221e-06
1.37833e-06
1.011e-06
-5.9524e-07
1.20771e-06
-1.11121e-06
1.28717e-06
-1.73572e-07
1.14919e-06
5.26287e-07
1.15607e-06
2.51188e-07
1.14751e-06
1.94589e-07
1.115e-06
-1.32016e-07
1.14716e-06
5.94705e-07
1.15514e-06
4.56939e-07
1.16241e-06
6.68825e-07
1.1568e-06
3.95413e-07
1.17733e-06
5.82051e-07
1.18583e-06
4.10165e-07
1.17715e-06
4.95434e-07
1.17925e-06
3.61183e-07
1.16497e-06
2.67871e-07
1.15706e-06
2.41608e-07
9.28315e-08
1.12061e-06
1.29916e-06
-7.76379e-07
1.15849e-06
1.519e-06
1.07839e-06
-5.15142e-07
1.26023e-06
-1.29305e-06
1.34868e-06
-2.62028e-07
1.21003e-06
6.64941e-07
1.21784e-06
2.43373e-07
1.20701e-06
2.05421e-07
1.17308e-06
-9.80863e-08
1.21161e-06
5.5617e-07
1.21283e-06
4.55726e-07
1.22911e-06
6.52541e-07
1.21405e-06
4.10476e-07
1.24492e-06
5.51179e-07
1.24088e-06
4.14209e-07
1.24895e-06
4.87358e-07
1.23076e-06
3.79381e-07
1.23908e-06
2.5955e-07
1.20447e-06
2.7621e-07
9.00153e-08
1.20729e-06
1.36274e-06
-8.56341e-07
1.25675e-06
1.625e-06
1.15707e-06
-4.15458e-07
1.30782e-06
-1.4438e-06
1.41133e-06
-3.65542e-07
1.28764e-06
7.88632e-07
1.28714e-06
2.43869e-07
1.28504e-06
2.07526e-07
1.24047e-06
-5.35138e-08
1.28473e-06
5.11907e-07
1.27533e-06
4.65127e-07
1.30393e-06
6.23944e-07
1.27736e-06
4.37037e-07
1.31244e-06
5.16105e-07
1.30258e-06
4.24069e-07
1.31418e-06
4.75762e-07
1.29535e-06
3.98208e-07
1.29792e-06
2.56983e-07
1.27745e-06
2.96672e-07
1.05211e-07
1.26226e-06
1.42875e-06
-9.4099e-07
1.37107e-06
1.68268e-06
1.24468e-06
-2.89072e-07
1.35296e-06
-1.55207e-06
1.4746e-06
-4.87181e-07
1.38146e-06
8.81774e-07
1.3648e-06
2.60526e-07
1.37554e-06
1.96783e-07
1.31498e-06
7.05153e-09
1.3587e-06
4.68188e-07
1.34289e-06
4.80938e-07
1.3739e-06
5.92927e-07
1.34729e-06
4.6365e-07
1.37252e-06
4.90875e-07
1.36877e-06
4.27815e-07
1.37605e-06
4.68483e-07
1.36472e-06
4.09545e-07
1.36054e-06
2.61159e-07
1.34843e-06
3.0878e-07
1.25367e-07
1.32828e-06
1.49553e-06
-1.02817e-06
1.4917e-06
1.68651e-06
1.33747e-06
-1.34841e-07
1.39941e-06
-1.61401e-06
1.53671e-06
-6.24483e-07
1.48566e-06
9.32819e-07
1.44824e-06
2.97947e-07
1.46596e-06
1.79064e-07
1.39396e-06
7.90577e-08
1.42637e-06
4.3577e-07
1.41463e-06
4.92679e-07
1.43886e-06
5.68705e-07
1.42115e-06
4.81358e-07
1.43392e-06
4.78106e-07
1.43594e-06
4.25795e-07
1.44225e-06
4.62174e-07
1.43602e-06
4.15772e-07
1.42999e-06
2.67186e-07
1.42047e-06
3.18297e-07
1.46418e-07
1.39942e-06
1.56113e-06
-1.11362e-06
1.605e-06
1.64264e-06
1.43128e-06
3.88774e-08
1.45128e-06
-1.63401e-06
1.59591e-06
-7.69113e-07
1.5892e-06
9.39525e-07
1.53456e-06
3.52588e-07
1.54618e-06
1.67449e-07
1.47498e-06
1.50251e-07
1.49133e-06
4.19423e-07
1.48938e-06
4.94632e-07
1.50582e-06
5.52263e-07
1.49723e-06
4.89951e-07
1.50247e-06
4.72866e-07
1.50599e-06
4.22271e-07
1.51349e-06
4.5468e-07
1.51075e-06
4.18512e-07
1.50448e-06
2.73451e-07
1.49629e-06
3.26491e-07
1.68143e-07
1.47456e-06
1.62405e-06
-1.19145e-06
1.70008e-06
1.56661e-06
1.52389e-06
2.15061e-07
1.51097e-06
-1.62109e-06
1.65128e-06
-9.09414e-07
1.68293e-06
9.07867e-07
1.62142e-06
4.14104e-07
1.61617e-06
1.72701e-07
1.55578e-06
2.10634e-07
1.55977e-06
4.15441e-07
1.56578e-06
4.88623e-07
1.57787e-06
5.40172e-07
1.5753e-06
4.92514e-07
1.578e-06
4.70168e-07
1.58105e-06
4.19221e-07
1.58921e-06
4.46522e-07
1.58868e-06
4.19038e-07
1.58236e-06
2.79771e-07
1.57512e-06
3.33737e-07
1.903e-07
1.55296e-06
1.68403e-06
-1.25535e-06
1.77411e-06
1.47652e-06
1.61577e-06
3.73407e-07
1.57914e-06
-1.58446e-06
1.7033e-06
-1.03357e-06
1.7637e-06
8.47463e-07
1.70687e-06
4.70932e-07
1.68235e-06
1.97221e-07
1.63464e-06
2.5834e-07
1.63296e-06
4.17123e-07
1.64251e-06
4.79072e-07
1.65309e-06
5.296e-07
1.65435e-06
4.91252e-07
1.65734e-06
4.67171e-07
1.65988e-06
4.16687e-07
1.66782e-06
4.38582e-07
1.66824e-06
4.18621e-07
1.66167e-06
2.86336e-07
1.65543e-06
3.39974e-07
2.12287e-07
1.63345e-06
1.74258e-06
-1.30035e-06
1.83243e-06
1.38667e-06
1.70819e-06
4.97651e-07
1.65557e-06
-1.53184e-06
1.75407e-06
-1.13207e-06
1.83283e-06
7.68705e-07
1.78906e-06
5.14696e-07
1.75106e-06
2.35222e-07
1.71209e-06
2.97311e-07
1.70865e-06
4.20569e-07
1.71838e-06
4.69343e-07
1.7284e-06
5.19571e-07
1.73235e-06
4.87303e-07
1.73685e-06
4.62679e-07
1.73941e-06
4.14119e-07
1.74686e-06
4.31141e-07
1.74768e-06
4.17793e-07
1.7409e-06
2.93117e-07
1.73613e-06
3.44745e-07
2.33155e-07
1.71526e-06
1.80293e-06
-1.32456e-06
1.88475e-06
1.30485e-06
1.80151e-06
5.80888e-07
1.73968e-06
-1.47001e-06
1.8072e-06
-1.1996e-06
1.89385e-06
6.82054e-07
1.86694e-06
5.41609e-07
1.82532e-06
2.76838e-07
1.79064e-06
3.31992e-07
1.78531e-06
4.25906e-07
1.79306e-06
4.61588e-07
1.80244e-06
5.10192e-07
1.80828e-06
4.81463e-07
1.81451e-06
4.56451e-07
1.81767e-06
4.10956e-07
1.82484e-06
4.23975e-07
1.82639e-06
4.16241e-07
1.81988e-06
2.99621e-07
1.81718e-06
3.4745e-07
2.51822e-07
1.79851e-06
1.86899e-06
-1.3298e-06
1.94062e-06
1.23321e-06
1.89538e-06
6.2613e-07
1.83052e-06
-1.40514e-06
1.86705e-06
-1.23613e-06
1.9519e-06
5.97199e-07
1.94129e-06
5.52218e-07
1.90508e-06
3.13054e-07
1.87273e-06
3.64341e-07
1.86392e-06
4.34711e-07
1.86835e-06
4.57159e-07
1.87665e-06
5.01891e-07
1.88364e-06
4.7448e-07
1.89128e-06
4.48805e-07
1.89538e-06
4.06858e-07
1.90259e-06
4.16761e-07
1.90544e-06
4.13394e-07
1.89988e-06
3.0518e-07
1.8996e-06
3.47733e-07
2.67418e-07
1.884e-06
1.94364e-06
-1.3206e-06
2.00617e-06
1.17068e-06
1.9897e-06
6.42595e-07
1.92688e-06
-1.34232e-06
1.93717e-06
-1.24642e-06
2.01302e-06
5.21354e-07
2.0148e-06
5.50437e-07
1.98893e-06
3.38922e-07
1.9594e-06
3.93876e-07
1.9469e-06
4.47212e-07
1.94786e-06
4.56198e-07
1.95484e-06
4.94904e-07
1.96227e-06
4.67049e-07
1.97064e-06
4.40441e-07
1.9756e-06
4.01899e-07
1.98289e-06
4.09465e-07
1.98721e-06
4.09075e-07
1.98295e-06
3.0944e-07
1.98493e-06
3.45752e-07
2.79593e-07
1.97276e-06
2.02782e-06
-1.30223e-06
2.08316e-06
1.11534e-06
2.085e-06
6.40761e-07
2.02751e-06
-1.28483e-06
2.01895e-06
-1.23787e-06
2.08229e-06
4.58012e-07
2.09086e-06
5.41872e-07
2.07577e-06
3.54013e-07
2.05055e-06
4.19089e-07
2.03621e-06
4.61555e-07
2.03509e-06
4.57319e-07
2.04106e-06
4.88936e-07
2.04843e-06
4.59678e-07
2.05662e-06
4.32249e-07
2.06191e-06
3.96614e-07
2.06889e-06
4.02477e-07
2.07421e-06
4.0376e-07
2.07106e-06
3.12588e-07
2.07462e-06
3.42188e-07
2.88574e-07
2.06564e-06
2.12075e-06
-1.27898e-06
2.17043e-06
1.06566e-06
2.18219e-06
6.29001e-07
2.13152e-06
-1.23416e-06
2.11139e-06
-1.21773e-06
2.16216e-06
4.07244e-07
2.17232e-06
5.31714e-07
2.16552e-06
3.60812e-07
2.14587e-06
4.38738e-07
2.13249e-06
4.74932e-07
2.13159e-06
4.5822e-07
2.13731e-06
4.83221e-07
2.14444e-06
4.52541e-07
2.15171e-06
4.24981e-07
2.15658e-06
3.91745e-07
2.16268e-06
3.96383e-07
2.16809e-06
3.98345e-07
2.16548e-06
3.152e-07
2.16968e-06
3.37986e-07
2.94991e-07
2.16326e-06
2.221e-06
-1.25348e-06
2.26599e-06
1.02066e-06
2.2824e-06
6.12591e-07
2.23865e-06
-1.19041e-06
2.21223e-06
-1.19132e-06
2.25238e-06
3.67097e-07
2.26091e-06
5.2318e-07
2.25915e-06
3.62573e-07
2.24546e-06
4.52433e-07
2.23531e-06
4.85084e-07
2.23666e-06
4.5686e-07
2.24291e-06
4.76978e-07
2.24991e-06
4.4554e-07
2.25594e-06
4.1895e-07
2.25984e-06
3.87843e-07
2.26464e-06
3.91586e-07
2.2693e-06
3.93688e-07
2.26664e-06
3.17857e-07
2.27064e-06
3.3399e-07
2.99592e-07
2.26603e-06
2.3274e-06
-1.22701e-06
2.36849e-06
9.79574e-07
2.38674e-06
5.94335e-07
2.34913e-06
-1.15279e-06
2.31938e-06
-1.16157e-06
2.35145e-06
3.3503e-07
2.35743e-06
5.17193e-07
2.35813e-06
3.61873e-07
2.34998e-06
4.60588e-07
2.34397e-06
4.91088e-07
2.34853e-06
4.523e-07
2.35564e-06
4.69873e-07
2.36264e-06
4.38535e-07
2.36758e-06
4.14016e-07
2.37036e-06
3.85057e-07
2.37388e-06
3.88074e-07
2.37733e-06
3.90233e-07
2.37432e-06
3.20863e-07
2.37764e-06
3.30672e-07
3.02983e-07
2.37425e-06
2.43937e-06
-1.19999e-06
2.47745e-06
9.41501e-07
2.4962e-06
5.75581e-07
2.46346e-06
-1.12005e-06
2.43166e-06
-1.12976e-06
2.45795e-06
3.08739e-07
2.46208e-06
5.13058e-07
2.4638e-06
3.60153e-07
2.46031e-06
4.64084e-07
2.45814e-06
4.93249e-07
2.46568e-06
4.44766e-07
2.47341e-06
4.62138e-07
2.48038e-06
4.31566e-07
2.4846e-06
4.09795e-07
2.48645e-06
3.83211e-07
2.48906e-06
3.85469e-07
2.49139e-06
3.87901e-07
2.48803e-06
3.24217e-07
2.49065e-06
3.28058e-07
3.05504e-07
2.48813e-06
2.55682e-06
-1.17251e-06
2.5929e-06
9.05419e-07
2.6115e-06
5.56976e-07
2.58218e-06
-1.09073e-06
2.54882e-06
-1.0964e-06
2.57112e-06
2.86441e-07
2.57472e-06
5.09454e-07
2.57695e-06
3.57923e-07
2.57713e-06
4.63903e-07
2.57783e-06
4.92552e-07
2.58741e-06
4.3518e-07
2.59521e-06
4.54341e-07
2.60188e-06
4.24901e-07
2.60576e-06
4.05907e-07
2.60697e-06
3.82004e-07
2.60919e-06
3.83249e-07
2.61085e-06
3.8624e-07
2.60735e-06
3.27722e-07
2.60955e-06
3.25854e-07
3.07235e-07
2.60782e-06
2.67988e-06
-1.14456e-06
2.71499e-06
8.7031e-07
2.73313e-06
5.38829e-07
2.70579e-06
-1.06338e-06
2.67117e-06
-1.06178e-06
2.69074e-06
2.66866e-07
2.69503e-06
5.05167e-07
2.69778e-06
3.55175e-07
2.70077e-06
4.60907e-07
2.70319e-06
4.90132e-07
2.71375e-06
4.24627e-07
2.72106e-06
4.47033e-07
2.72702e-06
4.18934e-07
2.73084e-06
4.02088e-07
2.7317e-06
3.81147e-07
2.73396e-06
3.80991e-07
2.73554e-06
3.84659e-07
2.73215e-06
3.31113e-07
2.73431e-06
3.23694e-07
3.08095e-07
2.73345e-06
2.80881e-06
-1.1161e-06
2.8438e-06
8.35324e-07
2.86138e-06
5.21243e-07
2.83479e-06
-1.03679e-06
2.79922e-06
-1.02621e-06
2.81694e-06
2.49148e-07
2.8227e-06
4.99402e-07
2.82611e-06
3.51769e-07
2.83124e-06
4.55774e-07
2.83443e-06
4.8694e-07
2.84504e-06
4.14016e-07
2.85159e-06
4.40491e-07
2.8565e-06
4.14021e-07
2.86039e-06
3.98192e-07
2.86113e-06
3.80408e-07
2.86362e-06
3.78505e-07
2.86566e-06
3.82616e-07
2.86262e-06
3.34152e-07
2.86499e-06
3.21332e-07
3.07937e-07
2.86514e-06
2.94392e-06
-1.08712e-06
2.97937e-06
7.99867e-07
2.99643e-06
5.04182e-07
2.96963e-06
-1.00998e-06
2.9335e-06
-9.90078e-07
2.94993e-06
2.32713e-07
2.95753e-06
4.91801e-07
2.96166e-06
3.47636e-07
2.9684e-06
4.49038e-07
2.97172e-06
4.83616e-07
2.98177e-06
4.03967e-07
2.98761e-06
4.34655e-07
2.99126e-06
4.10369e-07
2.99531e-06
3.94148e-07
2.99611e-06
3.79602e-07
2.99879e-06
3.75829e-07
3.00166e-06
3.79743e-07
2.99919e-06
3.36629e-07
3.00174e-06
3.18778e-07
3.06618e-07
3.00306e-06
3.08552e-06
-1.05763e-06
3.12175e-06
7.63632e-07
3.13841e-06
4.87523e-07
3.11079e-06
-9.82363e-07
3.07447e-06
-9.53753e-07
3.08996e-06
2.17216e-07
3.09944e-06
4.82328e-07
3.10425e-06
3.42823e-07
3.11214e-06
4.41146e-07
3.11528e-06
4.80476e-07
3.12442e-06
3.94829e-07
3.12987e-06
4.29207e-07
3.13224e-06
4.07993e-07
3.13646e-06
3.89928e-07
3.13751e-06
3.78559e-07
3.14019e-06
3.73146e-07
3.14402e-06
3.75907e-07
3.14229e-06
3.38359e-07
3.14483e-06
3.16237e-07
3.04106e-07
3.14735e-06
3.23396e-06
-1.02768e-06
3.27104e-06
7.26549e-07
3.28744e-06
4.7112e-07
3.2587e-06
-9.53617e-07
3.22254e-06
-9.17594e-07
3.23726e-06
2.02496e-07
3.24843e-06
4.7116e-07
3.25382e-06
3.37433e-07
3.26249e-06
4.3247e-07
3.2654e-06
4.77572e-07
3.27347e-06
3.86759e-07
3.27894e-06
4.23731e-07
3.28019e-06
4.06749e-07
3.28457e-06
3.85548e-07
3.28602e-06
3.77105e-07
3.2885e-06
3.70663e-07
3.29319e-06
3.71219e-07
3.29239e-06
3.39158e-07
3.29465e-06
3.13983e-07
3.00575e-07
3.29818e-06
3.38958e-06
-9.97329e-07
3.42744e-06
6.88688e-07
3.44372e-06
4.54841e-07
3.41377e-06
-9.23665e-07
3.37808e-06
-8.81904e-07
3.39204e-06
1.8853e-07
3.4046e-06
4.58602e-07
3.41047e-06
3.31559e-07
3.41965e-06
4.23298e-07
3.42244e-06
4.74777e-07
3.42941e-06
3.7979e-07
3.43529e-06
4.17849e-07
3.43565e-06
4.06387e-07
3.44012e-06
3.81076e-07
3.44217e-06
3.75058e-07
3.44432e-06
3.68514e-07
3.44955e-06
3.65987e-07
3.44988e-06
3.38828e-07
3.45166e-06
3.12204e-07
2.96432e-07
3.45581e-06
3.5527e-06
-9.6662e-07
3.59123e-06
6.50161e-07
3.60749e-06
4.38578e-07
3.57638e-06
-8.92557e-07
3.5414e-06
-8.46918e-07
3.55457e-06
1.75356e-07
3.56816e-06
4.45019e-07
3.57445e-06
3.2526e-07
3.58392e-06
4.13828e-07
3.58682e-06
4.71883e-07
3.59272e-06
3.73886e-07
3.59927e-06
4.11303e-07
3.59904e-06
4.06615e-07
3.60347e-06
3.76649e-07
3.60628e-06
3.72247e-07
3.60809e-06
3.66703e-07
3.61346e-06
3.60614e-07
3.61506e-06
3.37231e-07
3.61641e-06
3.10848e-07
2.9226e-07
3.62059e-06
3.72366e-06
-9.35572e-07
3.76274e-06
6.1108e-07
3.77909e-06
4.22222e-07
3.74694e-06
-8.604e-07
3.71281e-06
-8.12795e-07
3.72516e-06
1.63007e-07
3.7394e-06
4.30781e-07
3.74609e-06
3.18566e-07
3.75574e-06
4.04178e-07
3.75895e-06
4.68682e-07
3.76386e-06
3.68973e-07
3.77118e-06
4.03985e-07
3.77066e-06
4.07133e-07
3.77485e-06
3.72457e-07
3.77854e-06
3.68554e-07
3.78015e-06
3.65097e-07
3.78528e-06
3.55482e-07
3.78813e-06
3.34386e-07
3.78937e-06
3.09603e-07
2.88621e-07
3.79301e-06
3.90278e-06
-9.04164e-07
3.9423e-06
5.71561e-07
3.95888e-06
4.05641e-07
3.9258e-06
-8.27318e-07
3.89262e-06
-7.7962e-07
3.90416e-06
1.51469e-07
3.91872e-06
4.16226e-07
3.92579e-06
3.11491e-07
3.93556e-06
3.9441e-07
3.93922e-06
4.65022e-07
3.94324e-06
3.6495e-07
3.9513e-06
3.95931e-07
3.9508e-06
4.07631e-07
3.9545e-06
3.68752e-07
3.95913e-06
3.63927e-07
3.96077e-06
3.63458e-07
3.9654e-06
3.50853e-07
3.96929e-06
3.30499e-07
3.97086e-06
3.08024e-07
2.85798e-07
3.97369e-06
4.09045e-06
-8.72361e-07
4.13025e-06
5.31763e-07
4.14722e-06
3.88664e-07
4.11336e-06
-7.93452e-07
4.08114e-06
-7.47407e-07
4.09195e-06
1.40658e-07
4.10654e-06
4.01642e-07
4.11398e-06
3.04053e-07
4.12384e-06
3.84543e-07
4.12804e-06
4.60829e-07
4.13128e-06
3.61707e-07
4.13995e-06
3.87257e-07
4.13972e-06
4.07863e-07
4.14273e-06
3.65745e-07
4.14822e-06
3.58434e-07
4.15018e-06
3.61501e-07
4.15418e-06
3.46853e-07
4.15877e-06
3.25904e-07
4.16107e-06
3.05723e-07
2.83637e-07
4.16323e-06
4.28708e-06
-8.40141e-07
4.32693e-06
4.91913e-07
4.34449e-06
3.71107e-07
4.31001e-06
-7.58969e-07
4.27871e-06
-7.16114e-07
4.28894e-06
1.30433e-07
4.30331e-06
3.87271e-07
4.31108e-06
2.96286e-07
4.32106e-06
3.74558e-07
4.32579e-06
4.56096e-07
4.32837e-06
3.5913e-07
4.33751e-06
3.7812e-07
4.33775e-06
4.07626e-07
4.3399e-06
3.63594e-07
4.34608e-06
3.52254e-07
4.34859e-06
3.58988e-07
4.35197e-06
3.4347e-07
4.35691e-06
3.20972e-07
4.36017e-06
3.02455e-07
2.81686e-07
4.36212e-06
4.49316e-06
-8.07523e-07
4.53276e-06
4.52307e-07
4.55105e-06
3.52816e-07
4.51616e-06
-7.24074e-07
4.48569e-06
-6.85648e-07
4.49552e-06
1.206e-07
4.50949e-06
3.73307e-07
4.51754e-06
2.88238e-07
4.52768e-06
3.64412e-07
4.53293e-06
4.50848e-07
4.53494e-06
3.57122e-07
4.54438e-06
3.68677e-07
4.54524e-06
4.06763e-07
4.54646e-06
3.62377e-07
4.55303e-06
3.45687e-07
4.55626e-06
3.55753e-07
4.55916e-06
3.40568e-07
4.56414e-06
3.15997e-07
4.56835e-06
2.98244e-07
2.79358e-07
4.57068e-06
4.70917e-06
-7.74577e-07
4.74822e-06
4.13259e-07
4.76731e-06
3.33729e-07
4.73224e-06
-6.89007e-07
4.70247e-06
-6.55882e-07
4.71214e-06
1.1093e-07
4.72555e-06
3.599e-07
4.73379e-06
2.79992e-07
4.74417e-06
3.54032e-07
4.74991e-06
4.45113e-07
4.75141e-06
3.55622e-07
4.76102e-06
3.59065e-07
4.76267e-06
4.05118e-07
4.76292e-06
3.62124e-07
4.76955e-06
3.39053e-07
4.77367e-06
3.5164e-07
4.77616e-06
3.38079e-07
4.78103e-06
3.11125e-07
4.78596e-06
2.93313e-07
2.76216e-07
4.7891e-06
4.93563e-06
-7.41411e-07
4.97385e-06
3.7504e-07
4.99367e-06
3.13913e-07
4.95871e-06
-6.54049e-07
4.92949e-06
-6.26666e-07
4.93923e-06
1.01193e-07
4.95199e-06
3.4714e-07
4.9603e-06
2.71684e-07
4.97101e-06
3.4332e-07
4.97723e-06
4.38889e-07
4.97825e-06
3.54608e-07
4.98792e-06
3.49395e-07
4.99051e-06
4.02523e-07
4.98985e-06
3.62787e-07
4.99623e-06
3.32678e-07
5.00139e-06
3.46471e-07
5.00355e-06
3.35922e-07
5.00814e-06
3.06532e-07
5.01353e-06
2.87929e-07
2.72132e-07
5.01761e-06
5.17305e-06
-7.08146e-07
5.21026e-06
3.37833e-07
5.23059e-06
2.93583e-07
5.19606e-06
-6.19518e-07
5.16723e-06
-5.97837e-07
5.17724e-06
9.11874e-08
5.18933e-06
3.35044e-07
5.19753e-06
2.63486e-07
5.20866e-06
3.32192e-07
5.21543e-06
4.32115e-07
5.21596e-06
3.54082e-07
5.22558e-06
3.39774e-07
5.22928e-06
3.98818e-07
5.22788e-06
3.64187e-07
5.23367e-06
3.2689e-07
5.23995e-06
3.40188e-07
5.24202e-06
3.33855e-07
5.24607e-06
3.02487e-07
5.25167e-06
2.82323e-07
2.67212e-07
5.25659e-06
5.42193e-06
-6.74888e-07
5.45807e-06
3.01696e-07
5.47855e-06
2.73099e-07
5.44483e-06
-5.85794e-07
5.41622e-06
-5.69227e-07
5.42661e-06
8.07929e-08
5.43815e-06
3.23501e-07
5.44602e-06
2.55616e-07
5.45759e-06
3.20628e-07
5.46503e-06
4.24677e-07
5.4651e-06
3.54009e-07
5.47449e-06
3.30388e-07
5.4795e-06
3.938e-07
5.47759e-06
3.66104e-07
5.4825e-06
3.21981e-07
5.48988e-06
3.32804e-07
5.49217e-06
3.3156e-07
5.49542e-06
2.99243e-07
5.50106e-06
2.76685e-07
2.61679e-07
5.50659e-06
5.68278e-06
-6.41707e-07
5.71789e-06
2.66584e-07
5.73806e-06
2.52923e-07
5.70557e-06
-5.53297e-07
5.67704e-06
-5.40701e-07
5.68782e-06
7.0017e-08
5.69907e-06
3.12246e-07
5.70637e-06
2.4832e-07
5.7183e-06
3.08702e-07
5.72655e-06
4.16422e-07
5.72624e-06
3.54318e-07
5.73519e-06
3.21439e-07
5.74166e-06
3.87331e-07
5.73956e-06
3.68206e-07
5.74331e-06
3.1823e-07
5.75164e-06
3.24471e-07
5.75455e-06
3.2865e-07
5.7569e-06
2.96901e-07
5.7623e-06
2.71283e-07
2.55732e-07
5.76824e-06
5.95612e-06
-6.08636e-07
5.99036e-06
2.3235e-07
6.00967e-06
2.33613e-07
5.97888e-06
-5.22509e-07
5.95034e-06
-5.12162e-07
5.96137e-06
5.89863e-08
5.97268e-06
3.00935e-07
5.9792e-06
2.41797e-07
5.99132e-06
2.9659e-07
6.00055e-06
4.0719e-07
5.99997e-06
3.54892e-07
6.00826e-06
3.13155e-07
6.01628e-06
3.79307e-07
6.01436e-06
3.70123e-07
6.01677e-06
3.15819e-07
6.02571e-06
3.15536e-07
6.02967e-06
3.24693e-07
6.03121e-06
2.95354e-07
6.03604e-06
2.6646e-07
2.49587e-07
6.04218e-06
6.24253e-06
-5.75675e-07
6.27609e-06
1.98784e-07
6.29395e-06
2.15761e-07
6.26537e-06
-4.93937e-07
6.23678e-06
-4.83563e-07
6.24778e-06
4.79815e-08
6.25952e-06
2.892e-07
6.2652e-06
2.36113e-07
6.27724e-06
2.84551e-07
6.28755e-06
3.96882e-07
6.2869e-06
3.55538e-07
6.2943e-06
3.0575e-07
6.30387e-06
3.69741e-07
6.30258e-06
3.71411e-07
6.30357e-06
3.14827e-07
6.31265e-06
3.06463e-07
6.31797e-06
3.19372e-07
6.31908e-06
2.94246e-07
6.32295e-06
2.62586e-07
2.43475e-07
6.32906e-06
6.5426e-06
-5.4281e-07
6.57575e-06
1.65642e-07
6.59163e-06
1.99873e-07
6.56571e-06
-4.68012e-07
6.53707e-06
-4.54927e-07
6.54754e-06
3.7518e-08
6.56009e-06
2.76647e-07
6.56505e-06
2.31156e-07
6.57672e-06
2.72874e-07
6.58809e-06
3.85519e-07
6.58762e-06
3.56001e-07
6.594e-06
2.99373e-07
6.60493e-06
3.58809e-07
6.60477e-06
3.71568e-07
6.6044e-06
3.15203e-07
6.61307e-06
2.97794e-07
6.61994e-06
3.12503e-07
6.6211e-06
2.93086e-07
6.62384e-06
2.5984e-07
2.37778e-07
6.62954e-06
6.857e-06
-5.10022e-07
6.88994e-06
1.32702e-07
6.90374e-06
1.86072e-07
6.88043e-06
-4.44702e-07
6.8521e-06
-4.26595e-07
6.8613e-06
2.83212e-08
6.87487e-06
2.63077e-07
6.87943e-06
2.2659e-07
6.89046e-06
2.61846e-07
6.90277e-06
3.73217e-07
6.90275e-06
3.5602e-07
6.90803e-06
2.94089e-07
6.92003e-06
3.46805e-07
6.9215e-06
3.70103e-07
6.91987e-06
3.16834e-07
6.92761e-06
2.90056e-07
6.93607e-06
3.04037e-07
6.93782e-06
2.91342e-07
6.93954e-06
2.58119e-07
2.3286e-07
6.94446e-06
7.18643e-06
-4.77317e-07
7.21931e-06
9.98191e-08
7.23113e-06
1.74251e-07
7.20969e-06
-4.23261e-07
7.18269e-06
-3.99593e-07
7.18994e-06
2.10674e-08
7.20437e-06
2.48655e-07
7.20902e-06
2.21942e-07
7.21919e-06
2.51668e-07
7.23223e-06
3.60177e-07
7.23289e-06
3.55365e-07
7.23707e-06
2.89911e-07
7.24982e-06
3.34054e-07
7.25323e-06
3.66692e-07
7.25068e-06
3.19383e-07
7.257e-06
2.83735e-07
7.26683e-06
2.94212e-07
7.26978e-06
2.88384e-07
7.27071e-06
2.5719e-07
2.28934e-07
7.27464e-06
7.53164e-06
-4.44734e-07
7.56448e-06
6.69801e-08
7.57463e-06
1.641e-07
7.55384e-06
-4.02465e-07
7.52947e-06
-3.75223e-07
7.53444e-06
1.60918e-08
7.54918e-06
2.33914e-07
7.5544e-06
2.16722e-07
7.56367e-06
2.42405e-07
7.57719e-06
3.4665e-07
7.57866e-06
3.53901e-07
7.5818e-06
2.86766e-07
7.59493e-06
3.20932e-07
7.60043e-06
3.61188e-07
7.59755e-06
3.22267e-07
7.60208e-06
2.79203e-07
7.61271e-06
2.83579e-07
7.61746e-06
2.8364e-07
7.61805e-06
2.56596e-07
2.26098e-07
7.62089e-06
7.89343e-06
-4.12353e-07
7.92611e-06
3.43035e-08
7.93509e-06
1.55116e-07
7.91368e-06
-3.81055e-07
7.8929e-06
-3.54447e-07
7.89579e-06
1.32055e-08
7.91006e-06
2.19647e-07
7.91616e-06
2.10619e-07
7.92468e-06
2.33889e-07
7.93831e-06
3.33016e-07
7.94072e-06
3.51495e-07
7.94292e-06
2.8456e-07
7.95597e-06
3.07884e-07
7.96358e-06
3.53575e-07
7.96107e-06
3.24782e-07
7.96372e-06
2.76553e-07
7.97437e-06
2.72927e-07
7.98125e-06
2.76757e-07
7.98214e-06
2.55705e-07
2.24273e-07
7.98397e-06
8.27263e-06
-3.80301e-07
8.30486e-06
2.07263e-09
8.31336e-06
1.46614e-07
8.29015e-06
-3.57842e-07
8.27348e-06
-3.3778e-07
8.27491e-06
1.17798e-08
8.28781e-06
2.06743e-07
8.29483e-06
2.03598e-07
8.30289e-06
2.25836e-07
8.31632e-06
3.19586e-07
8.31968e-06
3.48129e-07
8.32108e-06
2.83166e-07
8.33361e-06
2.95345e-07
8.34324e-06
3.43948e-07
8.34178e-06
3.26245e-07
8.34279e-06
2.75546e-07
8.35267e-06
2.63048e-07
8.36161e-06
2.67809e-07
8.36353e-06
2.53791e-07
2.23129e-07
8.36467e-06
8.67012e-06
-3.48758e-07
8.70142e-06
-2.92299e-08
8.71028e-06
1.37758e-07
8.6843e-06
-3.31864e-07
8.67163e-06
-3.25114e-07
8.6726e-06
1.08124e-08
8.68334e-06
1.96002e-07
8.69103e-06
1.9591e-07
8.69892e-06
2.17951e-07
8.71191e-06
3.06595e-07
8.71617e-06
3.43868e-07
8.71691e-06
2.82426e-07
8.72859e-06
2.83666e-07
8.74013e-06
3.32407e-07
8.74031e-06
3.26064e-07
8.7402e-06
2.75657e-07
8.74865e-06
2.546e-07
8.75912e-06
2.57338e-07
8.76271e-06
2.50198e-07
2.22127e-07
8.76371e-06
9.08682e-06
-3.17956e-07
9.1165e-06
-5.89153e-08
9.12666e-06
1.27602e-07
9.09734e-06
-3.0255e-07
9.0878e-06
-3.15573e-07
9.08958e-06
9.03186e-09
9.09767e-06
1.87912e-07
9.10542e-06
1.88167e-07
9.11339e-06
2.09981e-07
9.12581e-06
2.9417e-07
9.13097e-06
3.38711e-07
9.13127e-06
2.82122e-07
9.14182e-06
2.7312e-07
9.15507e-06
3.19156e-07
9.15736e-06
3.23771e-07
9.15686e-06
2.76163e-07
9.16344e-06
2.48021e-07
9.17462e-06
2.46152e-07
9.18023e-06
2.44594e-07
2.20671e-07
9.18168e-06
9.52367e-06
-2.88167e-07
9.55103e-06
-8.62793e-08
9.56328e-06
1.15358e-07
9.53093e-06
-2.70198e-07
9.5225e-06
-3.07147e-07
9.52641e-06
5.12123e-09
9.53186e-06
1.82463e-07
9.53876e-06
1.8127e-07
9.547e-06
2.01744e-07
9.55917e-06
2.82e-07
9.56521e-06
3.32671e-07
9.56533e-06
2.81993e-07
9.57445e-06
2.64006e-07
9.58901e-06
3.04595e-07
9.59376e-06
3.19018e-07
9.5936e-06
2.7632e-07
9.59825e-06
2.43371e-07
9.60921e-06
2.35192e-07
9.61675e-06
2.37057e-07
2.18231e-07
9.61919e-06
9.98167e-06
-2.59705e-07
1.0006e-05
-1.10641e-07
1.00209e-05
1.00461e-07
9.98647e-06
-2.35731e-07
9.97682e-06
-2.97497e-07
9.98377e-06
-1.82718e-09
9.98696e-06
1.79266e-07
9.99209e-06
1.76143e-07
1.00007e-05
1.931e-07
1.00131e-05
2.69596e-07
1.00201e-05
3.25692e-07
1.00204e-05
2.8174e-07
1.00278e-05
2.56612e-07
1.0043e-05
2.89331e-07
1.00504e-05
3.1166e-07
1.00512e-05
2.75473e-07
1.00543e-05
2.40289e-07
1.00641e-05
2.25361e-07
1.00732e-05
2.27972e-07
2.14498e-07
1.0077e-05
1.04618e-05
-2.32915e-07
1.04826e-05
-1.31375e-07
1.05004e-05
8.26325e-08
1.0465e-05
-2.00315e-07
1.04521e-05
-2.84614e-07
1.04626e-05
-1.23535e-08
1.04648e-05
1.77075e-07
1.04672e-05
1.73821e-07
1.04756e-05
1.84691e-07
1.04887e-05
2.56416e-07
1.04969e-05
3.17485e-07
1.04976e-05
2.81115e-07
1.05031e-05
2.51062e-07
1.05184e-05
2.74099e-07
1.05282e-05
3.01849e-07
1.05305e-05
2.73132e-07
1.05327e-05
2.3806e-07
1.05408e-05
2.17287e-07
1.05507e-05
2.18045e-07
2.09271e-07
1.0556e-05
1.09652e-05
-2.08141e-07
1.09818e-05
-1.47924e-07
1.10025e-05
6.18896e-08
1.09675e-05
-1.65257e-07
1.095e-05
-2.67127e-07
1.0964e-05
-2.63803e-08
1.0967e-05
1.74073e-07
1.09661e-05
1.7476e-07
1.09728e-05
1.7799e-07
1.09869e-05
2.42273e-07
1.09968e-05
3.07647e-07
1.09982e-05
2.79701e-07
1.1002e-05
2.47274e-07
1.10164e-05
2.59684e-07
1.10282e-05
2.90075e-07
1.10323e-05
2.69004e-07
1.10344e-05
2.35907e-07
1.10407e-05
2.11068e-07
1.10505e-05
2.08191e-07
2.02512e-07
1.10573e-05
1.14929e-05
-1.85707e-07
1.15048e-05
-1.5983e-07
1.15282e-05
3.85746e-08
1.14949e-05
-1.32052e-07
1.14723e-05
-2.4448e-07
1.14884e-05
-4.25017e-08
1.14942e-05
1.68326e-07
1.14907e-05
1.78258e-07
1.14944e-05
1.74252e-07
1.15088e-05
2.27912e-07
1.15205e-05
2.95958e-07
1.15232e-05
2.7698e-07
1.15256e-05
2.44816e-07
1.15385e-05
2.4685e-07
1.15516e-05
2.76944e-07
1.15575e-05
2.63064e-07
1.15602e-05
2.33219e-07
1.15651e-05
2.062e-07
1.1574e-05
1.99335e-07
1.9451e-07
1.1582e-05
1.2046e-05
-1.65877e-07
1.2053e-05
-1.66791e-07
1.20781e-05
1.34233e-08
1.20484e-05
-1.02351e-07
1.20211e-05
-2.17151e-07
1.20365e-05
-5.79688e-08
1.20466e-05
1.58231e-07
1.2042e-05
1.82907e-07
1.20422e-05
1.74001e-07
1.20556e-05
2.14574e-07
1.2069e-05
2.8257e-07
1.20734e-05
2.72508e-07
1.20753e-05
2.42963e-07
1.20861e-05
2.36072e-07
1.20998e-05
2.63167e-07
1.21075e-05
2.55442e-07
1.2111e-05
2.29717e-07
1.21153e-05
2.01908e-07
1.21227e-05
1.9188e-07
1.86021e-07
1.21312e-05
1.26255e-05
-1.48785e-07
1.26275e-05
-1.68797e-07
1.26533e-05
-1.23983e-08
1.26287e-05
-7.77349e-08
1.25979e-05
-1.86386e-07
1.26096e-05
-6.96341e-08
1.26248e-05
1.43059e-07
1.26208e-05
1.86912e-07
1.26177e-05
1.77067e-07
1.26289e-05
2.03388e-07
1.26434e-05
2.68043e-07
1.265e-05
2.65962e-07
1.26519e-05
2.41083e-07
1.26607e-05
2.27272e-07
1.26742e-05
2.49584e-07
1.26834e-05
2.46319e-07
1.26878e-05
2.25321e-07
1.2692e-05
1.97659e-07
1.26983e-05
1.85544e-07
1.77884e-07
1.27065e-05
1.32326e-05
-1.34427e-07
1.323e-05
-1.66225e-07
1.32551e-05
-3.74683e-08
1.32367e-05
-5.94039e-08
1.32041e-05
-1.53753e-07
1.32095e-05
-7.5071e-08
1.32291e-05
1.23513e-07
1.32276e-05
1.88389e-07
1.32221e-05
1.82552e-07
1.32304e-05
1.95121e-07
1.32452e-05
2.53204e-07
1.32539e-05
2.57331e-07
1.32564e-05
2.38584e-07
1.32636e-05
2.20044e-07
1.32763e-05
2.36883e-07
1.32866e-05
2.36066e-07
1.3292e-05
2.19916e-07
1.32963e-05
1.93334e-07
1.33021e-05
1.79749e-07
1.70547e-07
1.33094e-05
1.38684e-05
-1.2266e-07
1.38619e-05
-1.59764e-07
1.38849e-05
-6.04493e-08
1.38734e-05
-4.78674e-08
1.38405e-05
-1.209e-07
1.38388e-05
-7.33537e-08
1.38599e-05
1.02464e-07
1.38628e-05
1.85447e-07
1.38565e-05
1.88864e-07
1.38618e-05
1.89828e-07
1.3876e-05
2.39031e-07
1.38863e-05
2.46987e-07
1.389e-05
2.3488e-07
1.38961e-05
2.13964e-07
1.39076e-05
2.25347e-07
1.39184e-05
2.25257e-07
1.39249e-05
2.134e-07
1.39294e-05
1.88858e-07
1.3935e-05
1.74211e-07
1.63829e-07
1.39417e-05
1.45342e-05
-1.13179e-07
1.45245e-05
-1.50086e-07
1.45444e-05
-8.02941e-08
1.45397e-05
-4.32012e-08
1.45079e-05
-8.91506e-08
1.4499e-05
-6.43699e-08
1.45179e-05
8.34699e-08
1.45267e-05
1.76644e-07
1.45218e-05
1.9382e-07
1.45246e-05
1.87031e-07
1.45372e-05
2.26433e-07
1.45487e-05
2.3549e-07
1.45539e-05
2.29678e-07
1.45594e-05
2.08497e-07
1.45696e-05
2.15057e-07
1.45805e-05
2.14429e-07
1.4588e-05
2.05897e-07
1.45929e-05
1.83944e-07
1.45982e-05
1.68943e-07
1.57363e-07
1.46046e-05
1.52312e-05
-1.05522e-07
1.52192e-05
-1.38104e-07
1.52361e-05
-9.71543e-08
1.52366e-05
-4.365e-08
1.52066e-05
-5.91966e-08
1.51917e-05
-4.94514e-08
1.52063e-05
6.88037e-08
1.52206e-05
1.62431e-07
1.52191e-05
1.95314e-07
1.522e-05
1.8606e-07
1.52307e-05
2.15815e-07
1.52426e-05
2.23557e-07
1.52493e-05
2.22953e-07
1.52548e-05
2.03035e-07
1.52639e-05
2.05932e-07
1.52744e-05
2.0394e-07
1.52825e-05
1.97771e-07
1.52881e-05
1.78336e-07
1.52931e-05
1.63942e-07
1.51048e-07
1.52994e-05
1.59613e-05
-9.95162e-08
1.5955e-05
-1.31819e-07
1.59644e-05
-1.0652e-07
1.59634e-05
-4.26432e-08
1.59377e-05
-3.34919e-08
1.59203e-05
-3.20367e-08
1.59294e-05
5.97195e-08
1.59462e-05
1.4563e-07
1.59491e-05
1.92339e-07
1.59495e-05
1.85689e-07
1.5958e-05
2.07294e-07
1.59697e-05
2.11928e-07
1.59776e-05
2.14983e-07
1.59836e-05
1.97114e-07
1.59918e-05
1.97673e-07
1.60018e-05
1.94e-07
1.60101e-05
1.89375e-07
1.60165e-05
1.72008e-07
1.60215e-05
1.58923e-07
1.45098e-07
1.60274e-05
1.67247e-05
-9.36304e-08
1.67068e-05
-1.13905e-07
1.67109e-05
-1.10631e-07
1.67195e-05
-5.12396e-08
1.67032e-05
-1.71972e-08
1.66859e-05
-1.47441e-08
1.66895e-05
5.60952e-08
1.67058e-05
1.29371e-07
1.67129e-05
1.85225e-07
1.67144e-05
1.84234e-07
1.67209e-05
2.00755e-07
1.67318e-05
2.01065e-07
1.67406e-05
2.06138e-07
1.67472e-05
1.9055e-07
1.6755e-05
1.89842e-07
1.67644e-05
1.84635e-07
1.67728e-05
1.80999e-07
1.67796e-05
1.65161e-07
1.67849e-05
1.53577e-07
1.396e-07
1.67904e-05
1.75252e-05
-8.84869e-08
1.75149e-05
-1.03567e-07
1.75109e-05
-1.06629e-07
1.7515e-05
-5.53138e-08
1.75043e-05
-6.50729e-09
1.74887e-05
8.50205e-10
1.74882e-05
5.65487e-08
1.75021e-05
1.15486e-07
1.7512e-05
1.75296e-07
1.75156e-05
1.80671e-07
1.75209e-05
1.95444e-07
1.75305e-05
1.91421e-07
1.75398e-05
1.96859e-07
1.7547e-05
1.8336e-07
1.75547e-05
1.8215e-07
1.75637e-05
1.75655e-07
1.75719e-05
1.72798e-07
1.7579e-05
1.58064e-07
1.75848e-05
1.47782e-07
1.34302e-07
1.75901e-05
1.8363e-05
-8.31007e-08
1.83514e-05
-9.20525e-08
1.83454e-05
-1.00584e-07
1.83491e-05
-5.90324e-08
1.8343e-05
-4.07497e-10
1.83298e-05
1.40206e-08
1.83266e-05
5.98075e-08
1.83372e-05
1.04924e-07
1.83486e-05
1.63858e-07
1.83544e-05
1.74891e-07
1.83596e-05
1.90231e-07
1.83679e-05
1.83114e-07
1.83772e-05
1.87596e-07
1.83849e-05
1.75564e-07
1.83926e-05
1.74513e-07
1.84014e-05
1.66881e-07
1.84094e-05
1.64737e-07
1.84165e-05
1.50982e-07
1.84226e-05
1.41651e-07
1.28848e-07
1.84281e-05
1.92411e-05
-7.77811e-08
1.9232e-05
-8.29463e-08
1.92228e-05
-9.14226e-08
1.9224e-05
-6.0185e-08
1.92211e-05
2.4758e-09
1.92108e-05
2.43151e-08
1.9206e-05
6.45405e-08
1.92133e-05
9.76492e-08
1.92247e-05
1.52432e-07
1.92325e-05
1.67132e-07
1.92384e-05
1.84355e-07
1.92457e-05
1.75812e-07
1.92544e-05
1.78874e-07
1.92627e-05