/*--------------------------------*- C++ -*----------------------------------*\
| =========                 |                                                 |
| \\      /  F ield         | OpenFOAM: The Open Source CFD Toolbox           |
|  \\    /   O peration     | Version:  2506                                  |
|   \\  /    A nd           | Website:  www.openfoam.com                      |
|    \\/     M anipulation  |                                                 |
\*---------------------------------------------------------------------------*/
FoamFile
{
    version     2.0;
    format      ascii;
    arch        "LSB;label=32;scalar=64";
    class       volVectorField;
    location    "7.75";
    object      U;
}
// * * * * * * * * * * * * * * * * * * * * * * * * * * * * * * * * * * * * * //

dimensions      [0 1 -1 0 0 0 0];

internalField   nonuniform List<vector> 
9600
(
(0.669319 -0.00647751 0)
(1.42239 0.0140046 0)
(0.46745 -0.00790423 0)
(1.22948 -0.0123034 0)
(0.857177 -0.00142125 0)
(1.33196 0.00653434 0)
(0.654712 0.00421493 0)
(1.3029 0.0034204 0)
(0.683966 -0.00309419 0)
(1.20102 0.0130864 0)
(0.782024 0.0108513 0)
(1.17977 0.0170965 0)
(0.824887 0.0107655 0)
(1.1421 0.0179012 0)
(0.881569 0.0137055 0)
(1.13925 0.0176388 0)
(0.880412 0.0140463 0)
(1.13192 0.0111791 0)
(0.863808 0.0107338 0)
(1.11575 0.00377301 0)
(0.676719 -0.00739998 0)
(1.41714 0.015487 0)
(0.512963 -0.00658785 0)
(1.21601 -0.0157664 0)
(0.859355 -0.00322017 0)
(1.32879 0.00891341 0)
(0.669459 0.00418449 0)
(1.29645 0.00358549 0)
(0.700885 -0.00232035 0)
(1.19401 0.012651 0)
(0.800726 0.0106828 0)
(1.16624 0.016919 0)
(0.855078 0.0111359 0)
(1.11674 0.0173491 0)
(0.924739 0.0135098 0)
(1.09572 0.0176432 0)
(0.948559 0.014343 0)
(1.05874 0.0111238 0)
(0.966496 0.0120834 0)
(1.00405 0.0038814 0)
(0.692131 -0.00825891 0)
(1.40537 0.0172228 0)
(0.587618 -0.00555311 0)
(1.18814 -0.0179758 0)
(0.866237 -0.0044126 0)
(1.31976 0.0112622 0)
(0.707015 0.00403222 0)
(1.27886 0.00379912 0)
(0.747314 -0.00154482 0)
(1.16817 0.0116387 0)
(0.847242 0.0107206 0)
(1.13032 0.0163947 0)
(0.912089 0.0118086 0)
(1.07227 0.0161381 0)
(0.977492 0.01377 0)
(1.05086 0.0172436 0)
(0.997935 0.0151835 0)
(1.02202 0.0109202 0)
(1.00036 0.0132077 0)
(0.994958 0.00484979 0)
(0.716888 -0.00907659 0)
(1.38405 0.0182399 0)
(0.684294 -0.0042209 0)
(1.1456 -0.0196023 0)
(0.880701 -0.00598963 0)
(1.30049 0.0129489 0)
(0.770485 0.00411939 0)
(1.2439 0.00377338 0)
(0.820815 -0.000492434 0)
(1.12222 0.010513 0)
(0.907439 0.0110838 0)
(1.0845 0.0155433 0)
(0.965076 0.0125502 0)
(1.03627 0.0150933 0)
(1.00666 0.0140339 0)
(1.02975 0.0169014 0)
(1.01591 0.0157847 0)
(1.01615 0.010932 0)
(1.00731 0.0139555 0)
(1.00174 0.00592061 0)
(0.75171 -0.0099473 0)
(1.35021 0.0185811 0)
(0.790069 -0.002506 0)
(1.09399 -0.0207008 0)
(0.903468 -0.00785208 0)
(1.26815 0.0140583 0)
(0.851931 0.00460224 0)
(1.19418 0.00344816 0)
(0.899992 0.000869186 0)
(1.07125 0.00959424 0)
(0.958061 0.0114539 0)
(1.04836 0.0147435 0)
(0.997242 0.0131532 0)
(1.01964 0.014547 0)
(1.01606 0.0140488 0)
(1.02354 0.0166601 0)
(1.02215 0.016118 0)
(1.01861 0.0111588 0)
(1.01183 0.0145036 0)
(1.00706 0.00688919 0)
(0.795069 -0.0108278 0)
(1.30294 0.0183815 0)
(0.88767 -0.000515409 0)
(1.0434 -0.0212261 0)
(0.930573 -0.00986211 0)
(1.22468 0.0145363 0)
(0.933921 0.005431 0)
(1.14134 0.00307306 0)
(0.961637 0.00233108 0)
(1.03312 0.0090572 0)
(0.989005 0.0116028 0)
(1.02927 0.0142279 0)
(1.01236 0.0135194 0)
(1.01641 0.0143311 0)
(1.01892 0.0139469 0)
(1.02278 0.0164115 0)
(1.02587 0.0163038 0)
(1.02297 0.0114495 0)
(1.01662 0.014908 0)
(1.01217 0.00794625 0)
(0.842488 -0.0116479 0)
(1.2451 0.0177189 0)
(0.963132 0.00158056 0)
(1.00436 -0.0212457 0)
(0.954575 -0.0118954 0)
(1.17662 0.0143446 0)
(0.999933 0.00644341 0)
(1.09767 0.00296562 0)
(0.99684 0.00364907 0)
(1.01331 0.00889305 0)
(1.00378 0.0115366 0)
(1.02224 0.0139097 0)
(1.01883 0.0136767 0)
(1.01858 0.0142473 0)
(1.02143 0.0138488 0)
(1.02428 0.0161313 0)
(1.0288 0.0163681 0)
(1.02717 0.0117252 0)
(1.02099 0.0152414 0)
(1.01657 0.00906239 0)
(0.887701 -0.0123456 0)
(1.18291 0.0167538 0)
(1.01121 0.00359155 0)
(0.983021 -0.0208857 0)
(0.969507 -0.0137813 0)
(1.13095 0.0135902 0)
(1.04212 0.00745863 0)
(1.06851 0.00326108 0)
(1.0105 0.00470938 0)
(1.00583 0.00893463 0)
(1.00916 0.0113448 0)
(1.01961 0.0136464 0)
(1.02093 0.0136918 0)
(1.02111 0.0141759 0)
(1.02367 0.0137662 0)
(1.02603 0.0158365 0)
(1.03054 0.0163551 0)
(1.02961 0.0119991 0)
(1.02388 0.0155329 0)
(1.01939 0.0102015 0)
(0.925232 -0.0128733 0)
(1.12388 0.0157029 0)
(1.035 0.00528953 0)
(0.978657 -0.0202578 0)
(0.974714 -0.0153599 0)
(1.09144 0.0124596 0)
(1.06117 0.00831257 0)
(1.05183 0.00389048 0)
(1.01259 0.00554826 0)
(1.00287 0.00901851 0)
(1.00933 0.0111099 0)
(1.01655 0.013385 0)
(1.0195 0.0136102 0)
(1.02122 0.0140611 0)
(1.02385 0.0136821 0)
(1.02597 0.0155574 0)
(1.0301 0.0163185 0)
(1.02943 0.0122844 0)
(1.02452 0.0157814 0)
(1.02031 0.0113082 0)
(0.952483 -0.0132047 0)
(1.07435 0.0147236 0)
(1.04194 0.00652031 0)
(0.985226 -0.0194565 0)
(0.974148 -0.016528 0)
(1.05871 0.0111411 0)
(1.06251 0.00889691 0)
(1.04248 0.00467284 0)
(1.01102 0.00626043 0)
(1.0005 0.00910617 0)
(1.00622 0.0108966 0)
(1.01143 0.0131301 0)
(1.01489 0.0134651 0)
(1.018 0.0138936 0)
(1.02103 0.0135858 0)
(1.02314 0.0152978 0)
(1.02708 0.0162674 0)
(1.02675 0.0125793 0)
(1.02296 0.0159498 0)
(1.01957 0.0123117 0)
(0.970016 -0.0133418 0)
(1.03776 0.0138722 0)
(1.03982 0.00727489 0)
(0.995534 -0.0185884 0)
(0.972685 -0.0172434 0)
(1.03259 0.00979321 0)
(1.05305 0.00918845 0)
(1.03592 0.00541599 0)
(1.00936 0.00691499 0)
(0.99815 0.00924842 0)
(1.00159 0.0107518 0)
(1.00501 0.0128989 0)
(1.00846 0.0132833 0)
(1.01243 0.0136792 0)
(1.01595 0.0134663 0)
(1.01818 0.0150406 0)
(1.02224 0.0161771 0)
(1.02253 0.012852 0)
(1.02003 0.0160113 0)
(1.01782 0.0131647 0)
(0.980325 -0.0133161 0)
(1.01409 0.0131401 0)
(1.03433 0.0076248 0)
(1.00462 -0.0177429 0)
(0.973131 -0.0175492 0)
(1.01324 0.00853946 0)
(1.03923 0.00923358 0)
(1.02972 0.00598711 0)
(1.00804 0.00752571 0)
(0.996299 0.0094817 0)
(0.997417 0.0106954 0)
(0.999253 0.0127037 0)
(1.00243 0.0130819 0)
(1.00666 0.0134287 0)
(1.0105 0.0133153 0)
(1.0128 0.0147841 0)
(1.01706 0.0160224 0)
(1.01806 0.0130673 0)
(1.01674 0.0159673 0)
(1.01572 0.0138433 0)
(0.986259 -0.0131753 0)
(1.00066 0.0124972 0)
(1.02847 0.00768968 0)
(1.01055 -0.0169682 0)
(0.975747 -0.0175435 0)
(1.00052 0.0074584 0)
(1.02571 0.0091211 0)
(1.02317 0.00634603 0)
(1.00641 0.00807053 0)
(0.995173 0.00978492 0)
(0.995086 0.0107105 0)
(0.995901 0.0125416 0)
(0.998758 0.0128744 0)
(1.00271 0.0131713 0)
(1.00653 0.0131373 0)
(1.00865 0.0145352 0)
(1.01292 0.0158121 0)
(1.01441 0.0132187 0)
(1.01392 0.0158447 0)
(1.01377 0.0143476 0)
(0.989984 -0.0129654 0)
(0.993841 0.0119209 0)
(1.02328 0.00758368 0)
(1.01348 -0.0162814 0)
(0.979479 -0.0173312 0)
(0.993256 0.00657867 0)
(1.01487 0.00894902 0)
(1.01655 0.00652585 0)
(1.00412 0.00851934 0)
(0.994582 0.0100981 0)
(0.994847 0.0107479 0)
(0.995424 0.0123951 0)
(0.998083 0.0126703 0)
(1.00147 0.0129407 0)
(1.00491 0.0129542 0)
(1.00655 0.0143071 0)
(1.01048 0.015586 0)
(1.01207 0.0133232 0)
(1.01196 0.0156782 0)
(1.01223 0.0147051 0)
(0.992692 -0.0127203 0)
(0.990558 0.0113988 0)
(1.0189 0.00739806 0)
(1.01434 -0.0156833 0)
(0.983228 -0.0169958 0)
(0.989526 0.00588738 0)
(1.00722 0.00879032 0)
(1.01049 0.00658869 0)
(1.00138 0.00885096 0)
(0.994267 0.0103607 0)
(0.996047 0.0107493 0)
(0.997018 0.0122443 0)
(0.999636 0.0124705 0)
(1.0024 0.0127499 0)
(1.00531 0.0127961 0)
(1.00629 0.0141171 0)
(1.00964 0.0153895 0)
(1.01099 0.0134096 0)
(1.01087 0.0155009 0)
(1.01117 0.0149604 0)
(0.994843 -0.0124591 0)
(0.988917 0.010924 0)
(1.0153 0.00718384 0)
(1.01408 -0.0151665 0)
(0.986374 -0.016596 0)
(0.987539 0.0053442 0)
(1.00222 0.00867517 0)
(1.00557 0.00658954 0)
(0.99873 0.00906387 0)
(0.994127 0.0105367 0)
(0.997817 0.0106782 0)
(0.999404 0.012075 0)
(1.00203 0.01227 0)
(1.00429 0.0125967 0)
(1.00671 0.0126777 0)
(1.00708 0.0139708 0)
(1.00979 0.0152477 0)
(1.01076 0.0135066 0)
(1.01044 0.0153403 0)
(1.01054 0.0151582 0)
(0.996535 -0.0121906 0)
(0.988039 0.0104899 0)
(1.01249 0.00695889 0)
(1.01333 -0.0147179 0)
(0.988724 -0.016161 0)
(0.986213 0.0049067 0)
(0.999063 0.00859927 0)
(1.00207 0.00656296 0)
(0.996656 0.00917389 0)
(0.994196 0.0106203 0)
(0.999554 0.0105286 0)
(1.00159 0.0118864 0)
(1.00412 0.0120671 0)
(1.00602 0.0124714 0)
(1.0081 0.0126012 0)
(1.00808 0.0138553 0)
(1.01026 0.0151546 0)
(1.01091 0.0136299 0)
(1.0104 0.0152074 0)
(1.01024 0.0153215 0)
(0.997784 -0.0119171 0)
(0.987602 0.0100853 0)
(1.01043 0.00673514 0)
(1.01248 -0.0143201 0)
(0.990317 -0.0156972 0)
(0.985147 0.00454343 0)
(0.997085 0.00854235 0)
(0.999946 0.00652636 0)
(0.995389 0.00919935 0)
(0.994516 0.0106314 0)
(1.001 0.0103179 0)
(1.00314 0.0116897 0)
(1.00538 0.0118693 0)
(1.007 0.0123561 0)
(1.00889 0.0125618 0)
(1.00874 0.0137522 0)
(1.01058 0.0150919 0)
(1.01109 0.0137808 0)
(1.0105 0.0150951 0)
(1.01015 0.0154465 0)
(0.998626 -0.0116389 0)
(0.987485 0.00969757 0)
(1.00902 0.00651636 0)
(1.0117 -0.0139549 0)
(0.991283 -0.0152133 0)
(0.984311 0.00422951 0)
(0.99582 0.00848078 0)
(0.998932 0.00648404 0)
(0.994885 0.00915928 0)
(0.995059 0.0105957 0)
(1.0021 0.0100719 0)
(1.00406 0.0115005 0)
(1.0058 0.0116868 0)
(1.00719 0.0122377 0)
(1.00897 0.0125462 0)
(1.0089 0.0136547 0)
(1.01057 0.0150373 0)
(1.01113 0.0139433 0)
(1.01058 0.0149881 0)
(1.01017 0.0155237 0)
(0.999128 -0.011356 0)
(0.987617 0.00931592 0)
(1.00811 0.00630534 0)
(1.01107 -0.013607 0)
(0.991771 -0.0147161 0)
(0.983774 0.00394865 0)
(0.994986 0.00839763 0)
(0.998672 0.00643212 0)
(0.994934 0.00907257 0)
(0.995731 0.0105339 0)
(1.00289 0.00981489 0)
(1.00451 0.011329 0)
(1.00562 0.0115325 0)
(1.00684 0.0121127 0)
(1.00851 0.0125387 0)
(1.00867 0.0135592 0)
(1.01028 0.0149656 0)
(1.01102 0.0140964 0)
(1.01061 0.0148779 0)
(1.01024 0.0155521 0)
(0.999368 -0.0110675 0)
(0.987938 0.00893146 0)
(1.00749 0.00610253 0)
(1.01061 -0.0132637 0)
(0.99193 -0.0142092 0)
(0.983574 0.00369007 0)
(0.994428 0.00828472 0)
(0.998855 0.00636678 0)
(0.995286 0.00895011 0)
(0.996421 0.0104643 0)
(1.00339 0.00956571 0)
(1.00469 0.0111753 0)
(1.00515 0.0114166 0)
(1.00624 0.0119794 0)
(1.0078 0.0125275 0)
(1.00824 0.0134645 0)
(1.00984 0.0148579 0)
(1.01081 0.0142256 0)
(1.01057 0.0147621 0)
(1.01032 0.0155252 0)
(0.999418 -0.0107735 0)
(0.988405 0.00853931 0)
(1.00702 0.00590393 0)
(1.01032 -0.0129119 0)
(0.991899 -0.0136973 0)
(0.983695 0.00344845 0)
(0.994055 0.00813941 0)
(0.999256 0.00628917 0)
(0.995738 0.00879795 0)
(0.997037 0.0103989 0)
(1.00365 0.00933787 0)
(1.00473 0.0110316 0)
(1.0046 0.0113408 0)
(1.00564 0.0118383 0)
(1.00706 0.0125064 0)
(1.00779 0.0133759 0)
(1.00937 0.0147095 0)
(1.01056 0.0143232 0)
(1.0105 0.0146444 0)
(1.01039 0.0154289 0)
(0.999332 -0.0104747 0)
(0.988986 0.00813811 0)
(1.00656 0.00570764 0)
(1.01016 -0.0125455 0)
(0.991795 -0.0131865 0)
(0.984076 0.00321987 0)
(0.993803 0.00796185 0)
(0.999718 0.00620091 0)
(0.996165 0.00862614 0)
(0.997529 0.010338 0)
(1.00375 0.00913869 0)
(1.00473 0.0108895 0)
(1.0041 0.0113005 0)
(1.00516 0.011695 0)
(1.00647 0.0124669 0)
(1.00743 0.0132944 0)
(1.00897 0.0145288 0)
(1.01034 0.0143839 0)
(1.01041 0.014537 0)
(1.01044 0.0152604 0)
(0.999149 -0.0101718 0)
(0.989649 0.00772816 0)
(1.00607 0.00551381 0)
(1.01008 -0.0121639 0)
(0.991711 -0.0126814 0)
(0.984635 0.00300285 0)
(0.993633 0.00775794 0)
(1.00014 0.00610161 0)
(0.996519 0.00844533 0)
(0.997887 0.0102768 0)
(1.00374 0.00896897 0)
(1.00472 0.0107418 0)
(1.00373 0.0112882 0)
(1.00484 0.0115554 0)
(1.00607 0.012403 0)
(1.00719 0.0132198 0)
(1.0087 0.0143278 0)
(1.01016 0.0144001 0)
(1.01032 0.0144498 0)
(1.01047 0.0150352 0)
(0.998903 -0.00986453 0)
(0.990353 0.00730901 0)
(1.00555 0.00532053 0)
(1.01001 -0.0117661 0)
(0.991712 -0.0121858 0)
(0.98529 0.0027971 0)
(0.993533 0.00753494 0)
(1.00046 0.00599176 0)
(0.996799 0.00826067 0)
(0.998125 0.0102109 0)
(1.00369 0.00882837 0)
(1.00474 0.0105803 0)
(1.00347 0.0112947 0)
(1.00465 0.0114202 0)
(1.00585 0.0123139 0)
(1.00708 0.0131583 0)
(1.00855 0.0141196 0)
(1.01003 0.0143646 0)
(1.01026 0.014386 0)
(1.01049 0.0147825 0)
(0.99863 -0.00955408 0)
(0.991048 0.00688366 0)
(1.00503 0.00512586 0)
(1.00992 -0.0113544 0)
(0.991833 -0.0117004 0)
(0.985972 0.00260419 0)
(0.993505 0.00729671 0)
(1.00067 0.00587546 0)
(0.997026 0.00807362 0)
(0.99827 0.0101349 0)
(1.00363 0.00871313 0)
(1.00478 0.0104012 0)
(1.00331 0.0113092 0)
(1.00454 0.0112909 0)
(1.00578 0.0121976 0)
(1.00704 0.0131067 0)
(1.00851 0.0139144 0)
(1.00996 0.0142738 0)
(1.01021 0.0143471 0)
(1.01048 0.0145474 0)
(0.998373 -0.00924049 0)
(0.99168 0.00645396 0)
(1.00456 0.00492896 0)
(1.00977 -0.0109299 0)
(0.992084 -0.0112263 0)
(0.986633 0.00242462 0)
(0.993553 0.00705058 0)
(1.00078 0.00575252 0)
(0.99722 0.00788697 0)
(0.998349 0.0100481 0)
(1.00356 0.00861674 0)
(1.00483 0.0102055 0)
(1.00321 0.0113211 0)
(1.00446 0.0111713 0)
(1.0058 0.0120514 0)
(1.00705 0.0130534 0)
(1.00853 0.0137208 0)
(1.00993 0.014124 0)
(1.01018 0.0143186 0)
(1.01045 0.0143768 0)
(0.99817 -0.0089224 0)
(0.99221 0.00601984 0)
(1.00413 0.00472816 0)
(1.00955 -0.010492 0)
(0.99245 -0.0107684 0)
(0.987253 0.00225691 0)
(0.993668 0.00680396 0)
(1.00083 0.00561765 0)
(0.997395 0.00770476 0)
(0.998387 0.00995501 0)
(1.0035 0.00853424 0)
(1.00489 0.0099964 0)
(1.00315 0.0113297 0)
(1.00439 0.0110682 0)
(1.00586 0.011876 0)
(1.00708 0.0129918 0)
(1.00856 0.0135514 0)
(1.00992 0.013918 0)
(1.01016 0.0142555 0)
(1.01039 0.0142901 0)
(0.998046 -0.00860105 0)
(0.99263 0.00558534 0)
(1.00374 0.0045208 0)
(1.00927 -0.0100464 0)
(0.992898 -0.010325 0)
(0.987831 0.00209996 0)
(0.99383 0.00656147 0)
(1.00084 0.00547178 0)
(0.997559 0.00752222 0)
(0.998399 0.00985562 0)
(1.00343 0.00846447 0)
(1.00497 0.00977742 0)
(1.0031 0.0113387 0)
(1.00431 0.0109898 0)
(1.00593 0.0116737 0)
(1.00712 0.0129175 0)
(1.00859 0.0134189 0)
(1.00992 0.0136843 0)
(1.01017 0.014118 0)
(1.01032 0.0142536 0)
(0.998007 -0.00827502 0)
(0.992956 0.00515174 0)
(1.00337 0.00430482 0)
(1.00895 -0.00959482 0)
(0.993388 -0.00989188 0)
(0.98838 0.00194974 0)
(0.994011 0.00632625 0)
(1.00084 0.00531563 0)
(0.997713 0.00733254 0)
(0.998397 0.00974661 0)
(1.00334 0.00840548 0)
(1.00505 0.00954819 0)
(1.00307 0.0113393 0)
(1.00421 0.0109435 0)
(1.00599 0.011453 0)
(1.00716 0.0128185 0)
(1.00859 0.0133202 0)
(1.00992 0.0134618 0)
(1.01019 0.0139062 0)
(1.01024 0.014193 0)
(0.99804 -0.00794533 0)
(0.993226 0.00472194 0)
(1.00298 0.00408086 0)
(1.00859 -0.00913999 0)
(0.993883 -0.00946762 0)
(0.988914 0.00180219 0)
(0.99419 0.00610604 0)
(1.00084 0.00515146 0)
(0.997862 0.00713545 0)
(0.998387 0.00962961 0)
(1.00324 0.00835219 0)
(1.00514 0.0093064 0)
(1.00305 0.0113145 0)
(1.00409 0.01093 0)
(1.00604 0.0112286 0)
(1.00722 0.0126811 0)
(1.00857 0.013233 0)
(1.00989 0.0132672 0)
(1.01021 0.0136588 0)
(1.01019 0.0140543 0)
(0.998122 -0.00761323 0)
(0.993478 0.0043017 0)
(1.00259 0.00384834 0)
(1.00821 -0.00868391 0)
(0.994359 -0.00905329 0)
(0.989445 0.00165206 0)
(0.994356 0.0059028 0)
(1.00084 0.00498646 0)
(0.998011 0.00692924 0)
(0.998374 0.00951071 0)
(1.00312 0.00830849 0)
(1.00524 0.00905618 0)
(1.00304 0.0112567 0)
(1.00396 0.0109444 0)
(1.00607 0.0110135 0)
(1.00729 0.0125069 0)
(1.00854 0.0131412 0)
(1.00985 0.013088 0)
(1.01023 0.0134152 0)
(1.01016 0.013841 0)
(0.998228 -0.00727899 0)
(0.993739 0.00389059 0)
(1.00218 0.00361132 0)
(1.00781 -0.00822827 0)
(0.9948 -0.00864353 0)
(0.989977 0.00149692 0)
(0.994503 0.00571228 0)
(1.00084 0.0048304 0)
(0.998162 0.00670827 0)
(0.99836 0.0093897 0)
(1.00298 0.00828182 0)
(1.00534 0.00880359 0)
(1.00306 0.0111702 0)
(1.00381 0.0109856 0)
(1.00608 0.0108151 0)
(1.00737 0.0123036 0)
(1.00849 0.0130535 0)
(1.00978 0.0129061 0)
(1.01024 0.0131765 0)
(1.01017 0.0135906 0)
(0.99834 -0.00694547 0)
(0.994021 0.00349391 0)
(1.00178 0.00336702 0)
(1.0074 -0.00778553 0)
(0.995206 -0.00823705 0)
(0.990509 0.00133102 0)
(0.994635 0.00552702 0)
(1.00084 0.00468691 0)
(0.998318 0.00647029 0)
(0.99835 0.0092579 0)
(1.00283 0.00827466 0)
(1.00544 0.00854776 0)
(1.00311 0.0110487 0)
(1.00366 0.0110475 0)
(1.00608 0.0106375 0)
(1.00748 0.0120661 0)
(1.00845 0.012983 0)
(1.0097 0.0127366 0)
(1.01024 0.0129185 0)
(1.01019 0.0133279 0)
(0.998447 -0.00661222 0)
(0.994322 0.00310964 0)
(1.00139 0.00311996 0)
(1.00699 -0.00735729 0)
(0.995579 -0.00783431 0)
(0.991038 0.00114947 0)
(0.994755 0.00534005 0)
(1.00082 0.00455029 0)
(0.99848 0.00621734 0)
(0.998348 0.00910068 0)
(1.00266 0.00828386 0)
(1.00554 0.00829501 0)
(1.00319 0.0108814 0)
(1.0035 0.011119 0)
(1.00604 0.0104932 0)
(1.0076 0.0117874 0)
(1.00841 0.012911 0)
(1.00958 0.0126128 0)
(1.01022 0.0126354 0)
(1.01023 0.0130394 0)
(0.998545 -0.00628026 0)
(0.994636 0.00273579 0)
(1.00102 0.00288057 0)
(1.00658 -0.00694898 0)
(0.995925 -0.00742314 0)
(0.99156 0.000970809 0)
(0.994866 0.00515623 0)
(1.00079 0.00443097 0)
(0.998644 0.00595899 0)
(0.998357 0.0089094 0)
(1.00248 0.00830233 0)
(1.00562 0.00805916 0)
(1.0033 0.0106659 0)
(1.00334 0.0111855 0)
(1.00596 0.0103932 0)
(1.00773 0.0114726 0)
(1.00839 0.0127978 0)
(1.00943 0.0125466 0)
(1.01017 0.012365 0)
(1.01028 0.0127138 0)
(0.998633 -0.0059488 0)
(0.994956 0.00236788 0)
(1.00067 0.0026574 0)
(1.00616 -0.00656569 0)
(0.996249 -0.00700845 0)
(0.992073 0.000792261 0)
(0.994972 0.00496322 0)
(1.00075 0.00434038 0)
(0.998807 0.0057079 0)
(0.998382 0.00868744 0)
(1.00228 0.00833232 0)
(1.00568 0.00785463 0)
(1.00344 0.010407 0)
(1.00319 0.0112322 0)
(1.00584 0.0103384 0)
(1.00787 0.0111397 0)
(1.0084 0.0126224 0)
(1.00925 0.0125183 0)
(1.01006 0.012152 0)
(1.01032 0.0123721 0)
(0.998714 -0.00561923 0)
(0.995275 0.00200547 0)
(1.00032 0.00245886 0)
(1.00575 -0.00621449 0)
(0.996553 -0.00659805 0)
(0.992573 0.000619344 0)
(0.995079 0.00475126 0)
(1.00069 0.00426752 0)
(0.998964 0.00547054 0)
(0.998424 0.00843754 0)
(1.00207 0.00836528 0)
(1.00572 0.00768602 0)
(1.00361 0.010115 0)
(1.00305 0.0112528 0)
(1.00567 0.0103298 0)
(1.00799 0.0108085 0)
(1.00845 0.012384 0)
(1.00906 0.0124965 0)
(1.0099 0.0120069 0)
(1.01032 0.0120486 0)
(0.998788 -0.00529018 0)
(0.99559 0.00164756 0)
(0.999998 0.00228219 0)
(1.00534 -0.00590411 0)
(0.99684 -0.00619194 0)
(0.993057 0.000469517 0)
(0.995189 0.00451797 0)
(1.00062 0.00419707 0)
(0.99911 0.0052542 0)
(0.998485 0.00816239 0)
(1.00186 0.00837807 0)
(1.00571 0.00754824 0)
(1.00381 0.00979648 0)
(1.00293 0.0112384 0)
(1.00546 0.0103646 0)
(1.00807 0.0104926 0)
(1.00854 0.0120818 0)
(1.00887 0.0124606 0)
(1.00968 0.011919 0)
(1.01028 0.0117678 0)
(0.998857 -0.00496091 0)
(0.995901 0.00128421 0)
(0.999682 0.00213665 0)
(1.00493 -0.00562935 0)
(0.997112 -0.00579971 0)
(0.993523 0.000349627 0)
(0.9953 0.00425884 0)
(1.00054 0.00411682 0)
(0.999243 0.00506163 0)
(0.99856 0.00787014 0)
(1.00164 0.00836323 0)
(1.00568 0.00744027 0)
(1.00401 0.00945493 0)
(1.00284 0.0111743 0)
(1.00519 0.0104382 0)
(1.00812 0.0102107 0)
(1.00866 0.0117097 0)
(1.00871 0.0123911 0)
(1.0094 0.0118828 0)
(1.01016 0.0115343 0)
(0.998922 -0.00463352 0)
(0.996207 0.000921799 0)
(0.999378 0.00201565 0)
(1.00452 -0.00536826 0)
(0.997374 -0.00544074 0)
(0.993967 0.000270802 0)
(0.995412 0.00399366 0)
(1.00045 0.00402298 0)
(0.999362 0.00488893 0)
(0.998649 0.00757251 0)
(1.00142 0.00832115 0)
(1.0056 0.00735535 0)
(1.00422 0.00909459 0)
(1.0028 0.0110461 0)
(1.00489 0.0105433 0)
(1.00809 0.00999339 0)
(1.00881 0.0112743 0)
(1.0086 0.0122515 0)
(1.00909 0.0118978 0)
(1.00996 0.0113648 0)
(0.998982 -0.00430713 0)
(0.996508 0.000562102 0)
(0.999089 0.00190269 0)
(1.00411 -0.00510023 0)
(0.997626 -0.00512291 0)
(0.994392 0.00023227 0)
(0.995521 0.0037435 0)
(1.00036 0.0039149 0)
(0.999468 0.00473409 0)
(0.998748 0.00728176 0)
(1.00122 0.00825331 0)
(1.00548 0.00728327 0)
(1.00442 0.00872947 0)
(1.0028 0.0108519 0)
(1.00456 0.0106617 0)
(1.00798 0.00986552 0)
(1.00896 0.0108066 0)
(1.00855 0.0119959 0)
(1.00876 0.0119247 0)
(1.00967 0.0112764 0)
(0.999038 -0.00398317 0)
(0.996805 0.000202541 0)
(0.998816 0.00180305 0)
(1.0037 -0.00481674 0)
(0.997873 -0.00486057 0)
(0.994801 0.000216826 0)
(0.995627 0.00351489 0)
(1.00027 0.00378143 0)
(0.999561 0.00458935 0)
(0.998856 0.00700732 0)
(1.00101 0.00817144 0)
(1.00532 0.00722081 0)
(1.00462 0.00836617 0)
(1.00286 0.0105887 0)
(1.00424 0.0107547 0)
(1.00777 0.0098224 0)
(1.00909 0.0103613 0)
(1.00859 0.0116167 0)
(1.00846 0.0118958 0)
(1.0093 0.0112613 0)
(0.999091 -0.00366164 0)
(0.997098 -0.000152086 0)
(0.998566 0.00170481 0)
(1.00329 -0.00449777 0)
(0.998112 -0.00466869 0)
(0.995201 0.000203155 0)
(0.995727 0.00332071 0)
(1.00018 0.00361969 0)
(0.999647 0.00443751 0)
(0.998973 0.00674872 0)
(1.00082 0.00808152 0)
(1.00512 0.0071752 0)
(1.00479 0.00801028 0)
(1.00297 0.0102615 0)
(1.00393 0.010795 0)
(1.00747 0.0098392 0)
(1.00915 0.00998954 0)
(1.00869 0.0111535 0)
(1.00822 0.0117661 0)
(1.00889 0.0112738 0)
(0.999139 -0.00334722 0)
(0.997387 -0.000489367 0)
(0.998345 0.00159133 0)
(1.00287 -0.0041284 0)
(0.99834 -0.00452439 0)
(0.995599 0.000185117 0)
(0.995822 0.00317921 0)
(1.00008 0.00344806 0)
(0.999728 0.00426827 0)
(0.999103 0.00650199 0)
(1.00064 0.00798254 0)
(1.00488 0.0071524 0)
(1.00494 0.00767633 0)
(1.00314 0.00987676 0)
(1.00366 0.0107715 0)
(1.0071 0.00988599 0)
(1.00912 0.00970336 0)
(1.00883 0.0106496 0)
(1.00808 0.0115224 0)
(1.00849 0.0112491 0)
(0.999185 -0.0030418 0)
(0.997672 -0.000806405 0)
(0.998159 0.00145989 0)
(1.00244 -0.00371195 0)
(0.998555 -0.00440771 0)
(0.996003 0.000141726 0)
(0.995914 0.00309728 0)
(0.999972 0.00330142 0)
(0.999807 0.0040776 0)
(0.99925 0.00625538 0)
(1.00047 0.00787935 0)
(1.0046 0.0071513 0)
(1.00504 0.00738078 0)
(1.00336 0.00943219 0)
(1.00346 0.0106653 0)
(1.00669 0.00994016 0)
(1.00899 0.00950438 0)
(1.00897 0.0101485 0)
(1.00803 0.0111807 0)
(1.00813 0.01115 0)
(0.999227 -0.00274605 0)
(0.997951 -0.00109532 0)
(0.998014 0.00129672 0)
(1.00202 -0.00326119 0)
(0.99875 -0.0042883 0)
(0.99642 5.33283e-05 0)
(0.996012 0.00305548 0)
(0.999853 0.00319741 0)
(0.999882 0.00387224 0)
(0.99942 0.005987 0)
(1.00033 0.00776035 0)
(1.00428 0.00716575 0)
(1.00509 0.00714288 0)
(1.00361 0.0089445 0)
(1.00332 0.0104553 0)
(1.00625 0.0099682 0)
(1.00874 0.00939088 0)
(1.00907 0.0096891 0)
(1.00805 0.010762 0)
(1.00783 0.0109722 0)
(0.999267 -0.00246621 0)
(0.998221 -0.00134417 0)
(0.997914 0.0010965 0)
(1.0016 -0.00279371 0)
(0.998919 -0.00413448 0)
(0.996851 -9.21225e-05 0)
(0.996123 0.00303143 0)
(0.99972 0.00314406 0)
(0.999947 0.00367395 0)
(0.999614 0.00568631 0)
(1.00023 0.00760459 0)
(1.00394 0.00718745 0)
(1.00506 0.00697264 0)
(1.00387 0.00845035 0)
(1.00327 0.0101407 0)
(1.00583 0.00992484 0)
(1.00841 0.00933785 0)
(1.0091 0.00930812 0)
(1.00814 0.0102876 0)
(1.00763 0.0107249 0)
(0.999306 -0.00220575 0)
(0.998479 -0.00154832 0)
(0.997864 0.000863415 0)
(1.0012 -0.00232878 0)
(0.999053 -0.0039219 0)
(0.997297 -0.000297827 0)
(0.996262 0.00299764 0)
(0.999574 0.00316278 0)
(0.999993 0.00351428 0)
(0.99983 0.00535322 0)
(1.00018 0.00739399 0)
(1.0036 0.00719709 0)
(1.00496 0.00686639 0)
(1.00411 0.00798611 0)
(1.0033 0.00974792 0)
(1.00545 0.00979112 0)
(1.00801 0.0092908 0)
(1.00903 0.00902606 0)
(1.00825 0.00979417 0)
(1.00751 0.010405 0)
(0.999343 -0.00196759 0)
(0.998722 -0.00170327 0)
(0.997861 0.000599324 0)
(1.00082 -0.00188455 0)
(0.999146 -0.00362735 0)
(0.997751 -0.000536494 0)
(0.996444 0.00291775 0)
(0.999425 0.00324079 0)
(1.00001 0.00342033 0)
(1.00006 0.00500899 0)
(1.00019 0.00712389 0)
(1.00328 0.00717053 0)
(1.00479 0.00681002 0)
(1.00432 0.00757324 0)
(1.00338 0.0093087 0)
(1.00514 0.00958518 0)
(1.00758 0.00920533 0)
(1.00886 0.00882368 0)
(1.00834 0.00933679 0)
(1.00748 0.0100042 0)
(0.99938 -0.00175501 0)
(0.998948 -0.00180345 0)
(0.997906 0.000303266 0)
(1.00048 -0.00148021 0)
(0.999194 -0.00326002 0)
(0.9982 -0.000789053 0)
(0.99668 0.00277281 0)
(0.999287 0.00334417 0)
(0.999987 0.00340127 0)
(1.00028 0.00468504 0)
(1.00025 0.00679578 0)
(1.00299 0.00708763 0)
(1.00457 0.00678972 0)
(1.00448 0.00722695 0)
(1.00351 0.00884175 0)
(1.00489 0.00932044 0)
(1.00715 0.00907528 0)
(1.00862 0.00865582 0)
(1.00838 0.00895872 0)
(1.00753 0.00954221 0)
(0.999416 -0.00156845 0)
(0.999152 -0.00185167 0)
(0.997993 -2.6215e-06 0)
(1.00018 -0.00113329 0)
(0.999194 -0.00283123 0)
(0.99863 -0.00101011 0)
(0.996978 0.00253243 0)
(0.999179 0.00343695 0)
(0.999928 0.00346427 0)
(1.00048 0.00441782 0)
(1.00036 0.00642676 0)
(1.00277 0.00693497 0)
(1.00433 0.00677651 0)
(1.00457 0.00696039 0)
(1.00367 0.00837724 0)
(1.00472 0.0090001 0)
(1.00675 0.00891513 0)
(1.00832 0.00849631 0)
(1.00834 0.00866802 0)
(1.00761 0.00908745 0)
(0.999453 -0.00141251 0)
(0.999332 -0.00184199 0)
(0.998116 -0.000307933 0)
(0.99994 -0.000863267 0)
(0.999154 -0.00237251 0)
(0.999018 -0.00114511 0)
(0.997332 0.00219945 0)
(0.999127 0.00348137 0)
(0.999843 0.00358991 0)
(1.00065 0.00422417 0)
(1.0005 0.00604919 0)
(1.00261 0.00671195 0)
(1.00408 0.00672595 0)
(1.0046 0.0067561 0)
(1.00383 0.00794972 0)
(1.00462 0.00863406 0)
(1.00638 0.00872136 0)
(1.008 0.00833047 0)
(1.00823 0.00842936 0)
(1.00765 0.00870445 0)
(0.99949 -0.00128325 0)
(0.999486 -0.00179257 0)
(0.998264 -0.000600617 0)
(0.99976 -0.000666992 0)
(0.999086 -0.00190358 0)
(0.99935 -0.00116625 0)
(0.997729 0.00183053 0)
(0.99915 0.00345025 0)
(0.999745 0.00374203 0)
(1.00076 0.0041112 0)
(1.00066 0.00569876 0)
(1.00251 0.00644126 0)
(1.00385 0.00663116 0)
(1.00458 0.00658194 0)
(1.00397 0.00757397 0)
(1.00457 0.00824645 0)
(1.00607 0.00847709 0)
(1.00768 0.00813911 0)
(1.00808 0.00818194 0)
(1.00765 0.00837606 0)
(0.999526 -0.00117107 0)
(0.999615 -0.00169389 0)
(0.998433 -0.000870461 0)
(0.999646 -0.000575158 0)
(0.999004 -0.00145152 0)
(0.999614 -0.00108069 0)
(0.998145 0.00147957 0)
(0.999257 0.0033081 0)
(0.999657 0.00386667 0)
(1.00083 0.00406885 0)
(1.0008 0.00539092 0)
(1.00247 0.00613331 0)
(1.00364 0.00649138 0)
(1.00453 0.00641262 0)
(1.00408 0.00723621 0)
(1.00457 0.00786681 0)
(1.00581 0.00820023 0)
(1.00735 0.00794098 0)
(1.00789 0.00793302 0)
(1.00761 0.0080703 0)
(0.999564 -0.00111182 0)
(0.999712 -0.001565 0)
(0.998597 -0.00104502 0)
(0.999595 -0.000560286 0)
(0.99893 -0.00102927 0)
(0.999812 -0.000886137 0)
(0.99855 0.00120097 0)
(0.99944 0.00305892 0)
(0.999604 0.00392588 0)
(1.00085 0.00407098 0)
(1.00092 0.00514643 0)
(1.00246 0.00581668 0)
(1.00348 0.00630999 0)
(1.00446 0.00624906 0)
(1.00417 0.00692275 0)
(1.00459 0.00749009 0)
(1.00561 0.00789415 0)
(1.00704 0.00772541 0)
(1.00768 0.00769956 0)
(1.00755 0.00775681 0)
(0.999598 -0.00101626 0)
(0.9998 -0.00148115 0)
(0.998758 -0.00126052 0)
(0.999597 -0.000551699 0)
(0.998879 -0.00061589 0)
(0.999947 -0.000614849 0)
(0.998914 0.00102664 0)
(0.999682 0.00275061 0)
(0.999609 0.00389069 0)
(1.00085 0.00406931 0)
(1.001 0.00495602 0)
(1.00248 0.0055126 0)
(1.00336 0.00608215 0)
(1.00437 0.00607774 0)
(1.00422 0.00664118 0)
(1.00462 0.00711728 0)
(1.00546 0.00756332 0)
(1.00677 0.00747523 0)
(1.00744 0.00748336 0)
(1.00748 0.00745074 0)
(0.999636 -0.000965262 0)
(0.999842 -0.00134066 0)
(0.998923 -0.00132542 0)
(0.999683 -0.000601742 0)
(0.998856 -0.000319339 0)
(1.00003 -0.000345073 0)
(0.999221 0.000940704 0)
(0.999953 0.00243932 0)
(0.999676 0.00375684 0)
(1.00085 0.00404657 0)
(1.00106 0.00481083 0)
(1.0025 0.00524402 0)
(1.00328 0.00583275 0)
(1.00429 0.00587813 0)
(1.00425 0.00638739 0)
(1.00466 0.00676972 0)
(1.00535 0.0072211 0)
(1.00654 0.00718565 0)
(1.0072 0.00725612 0)
(1.00737 0.00716874 0)
(0.999666 -0.000928671 0)
(0.9999 -0.00117727 0)
(0.999049 -0.00127621 0)
(0.999767 -0.000707569 0)
(0.998869 -0.000153982 0)
(1.00008 -9.02974e-05 0)
(0.999465 0.0009321 0)
(1.00023 0.0021687 0)
(0.9998 0.00354863 0)
(1.00087 0.00398098 0)
(1.00108 0.0046866 0)
(1.00251 0.00500408 0)
(1.00322 0.00558057 0)
(1.00423 0.00564923 0)
(1.00426 0.0061277 0)
(1.00468 0.00644935 0)
(1.00526 0.00688539 0)
(1.00635 0.00686645 0)
(1.00697 0.00698928 0)
(1.00722 0.00689639 0)
(0.999698 -0.00085853 0)
(0.999924 -0.00106075 0)
(0.99915 -0.00124901 0)
(0.999883 -0.000755365 0)
(0.998922 -3.37877e-05 0)
(1.00011 0.000141208 0)
(0.999647 0.000984462 0)
(1.00047 0.00195853 0)
(0.999963 0.00330867 0)
(1.00092 0.00385273 0)
(1.00109 0.00456323 0)
(1.0025 0.00478678 0)
(1.00317 0.00532962 0)
(1.00416 0.00541679 0)
(1.00427 0.00586068 0)
(1.0047 0.0061388 0)
(1.00517 0.00657876 0)
(1.00618 0.00655568 0)
(1.00677 0.00670064 0)
(1.00705 0.00662628 0)
(0.999723 -0.000808759 0)
(0.999959 -0.00095828 0)
(0.999233 -0.00114304 0)
(0.999992 -0.000783605 0)
(0.999 1.98477e-05 0)
(1.00015 0.000321174 0)
(0.999778 0.00106336 0)
(1.00069 0.00180969 0)
(1.00015 0.00308092 0)
(1.001 0.00367947 0)
(1.00109 0.00442814 0)
(1.00247 0.00459764 0)
(1.00311 0.0050841 0)
(1.0041 0.00518076 0)
(1.00425 0.00560408 0)
(1.00472 0.00581613 0)
(1.00509 0.0062716 0)
(1.00601 0.00626218 0)
(1.00657 0.00640432 0)
(1.00687 0.0063507 0)
(0.999747 -0.000763743 0)
(0.999977 -0.000842287 0)
(0.999293 -0.00101915 0)
(1.0001 -0.000786157 0)
(0.999106 3.49568e-05 0)
(1.00019 0.000452473 0)
(0.999868 0.00114877 0)
(1.00085 0.00171731 0)
(1.00033 0.00287153 0)
(1.0011 0.00347369 0)
(1.00111 0.00426328 0)
(1.00243 0.00442185 0)
(1.00305 0.00485949 0)
(1.00404 0.00493368 0)
(1.00422 0.00536335 0)
(1.00472 0.00551452 0)
(1.00504 0.00595141 0)
(1.00585 0.00598321 0)
(1.00638 0.00612082 0)
(1.0067 0.00607445 0)
(0.999767 -0.000693414 0)
(1.00001 -0.000792278 0)
(0.999334 -0.000912677 0)
(1.00018 -0.0007339 0)
(0.999221 4.74296e-05 0)
(1.00024 0.000542376 0)
(0.999931 0.00122995 0)
(1.00098 0.0016687 0)
(1.00049 0.00269747 0)
(1.00123 0.00326262 0)
(1.00114 0.00407824 0)
(1.00238 0.00424852 0)
(1.00297 0.00466069 0)
(1.00398 0.00468423 0)
(1.00418 0.00509528 0)
(1.0047 0.00522399 0)
(1.00499 0.00560698 0)
(1.0057 0.00566204 0)
(1.00619 0.00581455 0)
(1.00653 0.00575221 0)
(0.999783 -0.000642617 0)
(1.00002 -0.000710989 0)
(0.999383 -0.000792376 0)
(1.00026 -0.000672089 0)
(0.999343 5.03297e-05 0)