/*--------------------------------*- C++ -*----------------------------------*\
| =========                 |                                                 |
| \\      /  F ield         | OpenFOAM: The Open Source CFD Toolbox           |
|  \\    /   O peration     | Version:  2506                                  |
|   \\  /    A nd           | Website:  www.openfoam.com                      |
|    \\/     M anipulation  |                                                 |
\*---------------------------------------------------------------------------*/
FoamFile
{
    version     2.0;
    format      ascii;
    arch        "LSB;label=32;scalar=64";
    class       volScalarField;
    location    "3.15";
    object      p;
}
// * * * * * * * * * * * * * * * * * * * * * * * * * * * * * * * * * * * * * //

dimensions      [0 2 -2 0 0 0 0];

internalField   nonuniform List<scalar> 
9600
(
2.83772e-11
0.00127087
0.00444906
-0.00120321
-0.00484958
0.000357586
-0.000366128
-0.00322549
-0.00138567
-0.000630461
-0.00184161
-0.00151679
-0.000908887
-0.000928985
-0.00132639
-0.00100836
-0.0014891
-0.000766821
-0.000614286
0.000200636
9.647e-06
0.00126736
0.0043756
-0.00120247
-0.00478993
0.000324866
-0.000377587
-0.00322033
-0.00139381
-0.000628238
-0.00183238
-0.00152504
-0.000887265
-0.000941516
-0.00131139
-0.0010535
-0.00147545
-0.00080885
-0.000604619
2.6856e-05
1.81141e-05
0.00126137
0.00430053
-0.00119954
-0.0047387
0.000283912
-0.000388419
-0.00320768
-0.00140619
-0.000624689
-0.00182452
-0.00154024
-0.000875845
-0.000963037
-0.00129046
-0.00111278
-0.00145423
-0.000867042
-0.000599791
-0.000207242
2.6198e-05
0.00125732
0.00422196
-0.00119589
-0.00468606
0.000243979
-0.000397164
-0.0031879
-0.001424
-0.000622333
-0.00181771
-0.00156117
-0.000861443
-0.000991814
-0.00126814
-0.00117772
-0.00143756
-0.000917083
-0.000616671
-0.000428358
3.63561e-05
0.00125465
0.00413783
-0.00118918
-0.00462604
0.000203885
-0.00040763
-0.00316152
-0.0014472
-0.000620103
-0.00181037
-0.00158651
-0.000846912
-0.00102612
-0.00124189
-0.00124618
-0.00141962
-0.000960281
-0.000657947
-0.000617586
4.88057e-05
0.00125195
0.00404903
-0.00117784
-0.00455696
0.000161907
-0.000419707
-0.00312904
-0.00147279
-0.000617155
-0.00180255
-0.001615
-0.000832224
-0.00106153
-0.00121297
-0.00131442
-0.00139809
-0.00100493
-0.000716893
-0.000778225
6.35378e-05
0.00124852
0.00395722
-0.00116173
-0.00447924
0.000118552
-0.000431381
-0.00309096
-0.00149758
-0.000613676
-0.00179434
-0.00164555
-0.000817063
-0.00109599
-0.0011849
-0.00137889
-0.00137931
-0.00105023
-0.000789038
-0.000923012
8.02376e-05
0.00124398
0.00386377
-0.00114166
-0.00439409
7.48106e-05
-0.00044141
-0.00304811
-0.00151985
-0.000609911
-0.00178564
-0.00167759
-0.000801203
-0.00112953
-0.00115931
-0.00143879
-0.00136806
-0.00109091
-0.000876705
-0.00105991
9.84395e-05
0.00123812
0.00376949
-0.00111892
-0.00430308
3.09821e-05
-0.00044958
-0.00300175
-0.00153917
-0.000606043
-0.00177648
-0.00171077
-0.000784739
-0.00116228
-0.00113684
-0.00149438
-0.00136586
-0.00112509
-0.000982541
-0.00119174
0.000117731
0.00123095
0.00367458
-0.00109491
-0.00420757
-1.30015e-05
-0.00045628
-0.00295326
-0.00155588
-0.000602284
-0.00176701
-0.00174482
-0.000767977
-0.00119395
-0.0011184
-0.0015453
-0.00137414
-0.00115291
-0.00110542
-0.00132118
0.00013786
0.00122255
0.00357883
-0.00107076
-0.00410864
-5.72239e-05
-0.000462121
-0.00290378
-0.00157057
-0.000598796
-0.00175745
-0.00177963
-0.00075135
-0.00122398
-0.00110506
-0.00159071
-0.00139483
-0.00117465
-0.00124198
-0.00145306
0.000158704
0.00121298
0.00348194
-0.0010471
-0.00400705
-0.000101779
-0.000467654
-0.0028541
-0.00158376
-0.000595639
-0.00174804
-0.00181513
-0.000735302
-0.00125169
-0.00109788
-0.00162975
-0.00142945
-0.00119122
-0.00138799
-0.00159264
0.000180208
0.00120222
0.00338375
-0.00102416
-0.00390328
-0.000146673
-0.000473248
-0.00280465
-0.00159586
-0.000592776
-0.00173895
-0.00185125
-0.000720285
-0.00127602
-0.00109819
-0.00166182
-0.00147848
-0.00120513
-0.00153819
-0.00174347
0.000202347
0.00119027
0.00328419
-0.001002
-0.00379773
-0.00019173
-0.000479104
-0.00275563
-0.00160713
-0.000590037
-0.00173037
-0.00188779
-0.000706984
-0.00129594
-0.00110724
-0.00168676
-0.00154103
-0.00122036
-0.00168679
-0.00190688
0.000225107
0.00117705
0.00318332
-0.000980596
-0.00369069
-0.000236678
-0.000485361
-0.00270704
-0.0016178
-0.000587147
-0.00172251
-0.00192454
-0.000696157
-0.00131072
-0.00112603
-0.00170514
-0.00161501
-0.00124146
-0.00182843
-0.00208235
0.000248466
0.00116251
0.00308126
-0.000959842
-0.00358247
-0.000281233
-0.000492154
-0.00265878
-0.00162804
-0.000583837
-0.00171555
-0.00196136
-0.000688215
-0.0013199
-0.00115506
-0.00171832
-0.00169763
-0.0012725
-0.00195889
-0.00226781
0.0002724
0.00114659
0.00297815
-0.000939636
-0.00347337
-0.000325116
-0.000499608
-0.00261068
-0.00163805
-0.000579864
-0.00170959
-0.0019981
-0.000685419
-0.00132334
-0.00119396
-0.00172841
-0.00178603
-0.00131646
-0.00207555
-0.00246033
0.000296879
0.00112925
0.00287415
-0.000919872
-0.00336373
-0.000368057
-0.00050785
-0.00256256
-0.00164808
-0.000575041
-0.00170463
-0.00203472
-0.000687999
-0.0013213
-0.00124165
-0.0017378
-0.00187778
-0.00137515
-0.00217743
-0.00265643
0.000321857
0.00111046
0.0027694
-0.000900458
-0.00325391
-0.000409775
-0.000517019
-0.00251421
-0.00165837
-0.000569303
-0.00170061
-0.00207129
-0.000693623
-0.00131443
-0.00129685
-0.00174861
-0.00197091
-0.00144905
-0.0022647
-0.00285198
0.000347282
0.00109024
0.00266405
-0.000881294
-0.00314434
-0.000449939
-0.000527265
-0.0024655
-0.00166915
-0.000562648
-0.00169716
-0.00210827
-0.000702011
-0.00130357
-0.00135845
-0.00176254
-0.00206382
-0.00153785
-0.00233833
-0.00304213
0.000373141
0.00106861
0.00255823
-0.000862246
-0.00303548
-0.000488204
-0.000538758
-0.00241633
-0.00168065
-0.000555198
-0.00169357
-0.00214627
-0.000713223
-0.00128951
-0.00142575
-0.00178087
-0.0021551
-0.00164148
-0.00240032
-0.00322145
0.000399132
0.00104568
0.00245202
-0.000843172
-0.00292779
-0.00052427
-0.000551651
-0.00236661
-0.00169296
-0.00054733
-0.00168903
-0.00218597
-0.000727025
-0.00127262
-0.00149851
-0.00180421
-0.00224309
-0.00176013
-0.00245352
-0.00338416
0.000425162
0.0010216
0.00234549
-0.000823936
-0.00282171
-0.000557867
-0.000566067
-0.00231634
-0.00170595
-0.000539744
-0.00168271
-0.00222801
-0.000743537
-0.00125285
-0.00157656
-0.00183309
-0.00232591
-0.00189353
-0.00250133
-0.00352476
0.000451031
0.000996579
0.00223871
-0.000804382
-0.00271769
-0.000588785
-0.000581984
-0.00226565
-0.0017194
-0.000533357
-0.00167353
-0.00227277
-0.000763955
-0.00122982
-0.00165945
-0.00186867
-0.00240156
-0.0020405
-0.00254803
-0.00363855
0.000476532
0.000970896
0.00213168
-0.000784389
-0.00261614
-0.000616922
-0.000599291
-0.00221474
-0.001733
-0.000529097
-0.00166034
-0.00232029
-0.000789056
-0.00120314
-0.0017468
-0.00191301
-0.00246743
-0.00219839
-0.00259918
-0.00372176
0.000501437
0.000944897
0.00202437
-0.000763888
-0.00251738
-0.000642203
-0.000617874
-0.00216401
-0.00174604
-0.000527969
-0.0016427
-0.00237013
-0.000819928
-0.00117308
-0.00183836
-0.00196884
-0.00252058
-0.00236267
-0.00266161
-0.00377218
0.000525459
0.000918969
0.00191678
-0.000742811
-0.00242179
-0.000664613
-0.000637335
-0.00211405
-0.0017577
-0.000530875
-0.00162062
-0.00242124
-0.00085859
-0.00113798
-0.00193239
-0.00203907
-0.00255971
-0.00252696
-0.0027427
-0.00379131
0.000548246
0.000893557
0.00180895
-0.000721139
-0.00232962
-0.000684365
-0.000657009
-0.00206565
-0.00176752
-0.000538217
-0.00159424
-0.00247241
-0.000907004
-0.0010987
-0.00202596
-0.00212637
-0.00258598
-0.00268253
-0.00284841
-0.00378786
0.00056942
0.000869145
0.00170094
-0.000698966
-0.00224093
-0.000701966
-0.000676096
-0.00201938
-0.00177541
-0.000550273
-0.001564
-0.00252224
-0.000966405
-0.00105675
-0.00211586
-0.00223253
-0.00260323
-0.0028191
-0.00297978
-0.00377769
0.000588602
0.000846214
0.00159288
-0.000676438
-0.00215562
-0.000718152
-0.000693551
-0.00197572
-0.0017815
-0.000567009
-0.00153097
-0.00256946
-0.00103756
-0.00101424
-0.00219841
-0.00235777
-0.00261755
-0.00292753
-0.00313016
-0.00378048
0.000605389
0.000825234
0.00148498
-0.000653863
-0.00207345
-0.000733728
-0.000708235
-0.0019349
-0.00178645
-0.000587992
-0.00149613
-0.00261312
-0.00112092
-0.000973822
-0.00226983
-0.0025003
-0.00263642
-0.00300303
-0.003286
-0.00381363
0.000619363
0.000806691
0.00137754
-0.000631781
-0.00199386
-0.000749749
-0.00071942
-0.00189646
-0.00179155
-0.000613262
-0.00145987
-0.00265207
-0.00121691
-0.000938186
-0.00232671
-0.00265688
-0.00266753
-0.00304655
-0.0034312
-0.00388393
0.000630125
0.000790935
0.00127103
-0.000610672
-0.00191591
-0.000767582
-0.000726928
-0.00185916
-0.00179818
-0.000643311
-0.00142279
-0.00268529
-0.00132537
-0.000910169
-0.00236651
-0.00282329
-0.00271668
-0.0030639
-0.0035519
-0.00398407
0.00063728
0.000778255
0.00116625
-0.00059148
-0.00183855
-0.000787874
-0.00073133
-0.00182141
-0.00180706
-0.000678879
-0.00138581
-0.00271171
-0.00144581
-0.00089323
-0.00238727
-0.00299425
-0.0027873
-0.00306264
-0.00364068
-0.00409841
0.00064048
0.000768796
0.00106435
-0.000575539
-0.00176102
-0.000810754
-0.000733992
-0.00178155
-0.00181816
-0.000721157
-0.00134967
-0.00273014
-0.0015777
-0.000890908
-0.00238719
-0.00316385
-0.00288189
-0.00304988
-0.00369593
-0.00421169
0.000639496
0.000762242
0.000966939
-0.00056375
-0.00168318
-0.000835704
-0.000736708
-0.00173852
-0.00183105
-0.000771591
-0.00131537
-0.00273941
-0.00171957
-0.000906732
-0.00236554
-0.00332524
-0.00300277
-0.00303225
-0.00371709
-0.00431289
0.000634171
0.000757934
0.000875804
-0.00055654
-0.00160548
-0.000861279
-0.000741345
-0.00169234
-0.00184499
-0.000831485
-0.00128454
-0.00273824
-0.00186868
-0.000944508
-0.00232341
-0.00346941
-0.00315103
-0.00301848
-0.00370281
-0.00439357
0.000624522
0.000754664
0.000792708
-0.000553316
-0.00152918
-0.000886202
-0.000749106
-0.00164372
-0.00185924
-0.000901338
-0.00125919
-0.00272543
-0.00202159
-0.00100757
-0.00226447
-0.00358591
-0.00332443
-0.00302093
-0.00365377
-0.00444454
0.000610713
0.000751052
0.000719292
-0.00055293
-0.00145579
-0.000909655
-0.000761133
-0.00159408
-0.00187243
-0.000980329
-0.00124134
-0.00270018
-0.00217423
-0.00109799
-0.00219585
-0.00366567
-0.00351515
-0.00305325
-0.00357702
-0.0044548
0.000592893
0.000746203
0.000656525
-0.000554355
-0.00138662
-0.000931115
-0.000778936
-0.00154517
-0.00188139
-0.00106642
-0.00123297
-0.0026625
-0.0023217
-0.00121563
-0.00212661
-0.00370421
-0.00371103
-0.00312594
-0.00348752
-0.00441568
0.000571421
0.000739253
0.000604513
-0.000556118
-0.00132218
-0.000950954
-0.000804078
-0.00149858
-0.0018838
-0.00115692
-0.00123589
-0.00261368
-0.00245824
-0.0013574
-0.00206602
-0.00370185
-0.0038988
-0.00324227
-0.00340528
-0.00432706
0.000547483
0.000729228
0.00056191
-0.000556905
-0.00126225
-0.000969287
-0.000838116
-0.0014578
-0.00187844
-0.00124773
-0.00125067
-0.0025564
-0.00257845
-0.00151844
-0.00202185
-0.00366202
-0.0040656
-0.00339727
-0.00334962
-0.00419971
0.000522072
0.00071541
0.000527352
-0.00055518
-0.0012077
-0.00098306
-0.000880183
-0.00143005
-0.00186473
-0.00133337
-0.00127547
-0.00249392
-0.00267881
-0.00169305
-0.00200048
-0.00359077
-0.00419998
-0.00358062
-0.00333454
-0.00405156
0.000495759
0.000697463
0.000499961
-0.000549508
-0.00116025
-0.000989383
-0.000927577
-0.00141984
-0.00185161
-0.00141089
-0.00130939
-0.00242958
-0.0027579
-0.00187448
-0.00200628
-0.0034969
-0.00429226
-0.0037789
-0.00336761
-0.00390366
0.000469852
0.000675287
0.000478114
-0.00054029
-0.0011209
-0.00100015
-0.000979494
-0.00141749
-0.00183252
-0.00148088
-0.00135232
-0.0023682
-0.00281583
-0.00205652
-0.00204176
-0.00339228
-0.00433639
-0.00397582
-0.00344968
-0.0037766
0.000445391
0.000648588
0.000458815
-0.000528377
-0.00109189
-0.00101031
-0.00102279
-0.00141813
-0.00181586
-0.00154507
-0.00140183
-0.00231196
-0.00285425
-0.0022343
-0.0021071
-0.00328993
-0.00433268
-0.00415386
-0.00357391
-0.00368713
0.00042279
0.000617426
0.000439492
-0.000513794
-0.0010713
-0.00101752
-0.00105645
-0.00142307
-0.00180519
-0.0016036
-0.00145557
-0.00226203
-0.00287517
-0.0024026
-0.00219841
-0.00320047
-0.00428812
-0.00429801
-0.00372633
-0.00364487
0.00040238
0.000582286
0.000418293
-0.000496013
-0.00105602
-0.00102817
-0.00108452
-0.00143038
-0.00179842
-0.001659
-0.00151408
-0.00222042
-0.00287959
-0.00255522
-0.00230899
-0.00313104
-0.00421398
-0.00439888
-0.00388936
-0.00365125
0.00038435
0.000543947
0.000394204
-0.00047515
-0.00104537
-0.00104503
-0.0011076
-0.00143478
-0.00179411
-0.00171359
-0.00157802
-0.00218754
-0.00286873
-0.00268723
-0.00243158
-0.0030864
-0.00412276
-0.00445438
-0.00404581
-0.00370075
0.00036882
0.000503537
0.000366194
-0.000453
-0.00103799
-0.00106758
-0.00112719
-0.00143547
-0.00179098
-0.00176658
-0.00164573
-0.00216306
-0.00284532
-0.0027973
-0.00256009
-0.0030684
-0.00402681
-0.00446804
-0.00418073
-0.00378139
0.000355648
0.000462438
0.000332726
-0.000431338
-0.00103045
-0.00109521
-0.00114796
-0.00143323
-0.00178529
-0.0018156
-0.00171707
-0.00214986
-0.00281352
-0.00288438
-0.00268775
-0.00307398
-0.00393538
-0.0044468
-0.00428356
-0.00387808
0.000344481
0.000421694
0.000293006
-0.00041197
-0.00101993
-0.00112699
-0.001173
-0.00142891
-0.00177589
-0.00185922
-0.00179054
-0.00215019
-0.00277765
-0.0029466
-0.00280719
-0.00309815
-0.00385513
-0.00440154
-0.00435132
-0.00397622
0.000334534
0.000381708
0.000247261
-0.000396146
-0.00100469
-0.00116024
-0.00120458
-0.0014263
-0.00176328
-0.00189486
-0.00186233
-0.00216257
-0.00274261
-0.00298703
-0.0029142
-0.00313671
-0.00378938
-0.00434275
-0.00438586
-0.00406136
0.000324526
0.000342758
0.000197688
-0.000385219
-0.000984968
-0.00119121
-0.00124274
-0.00142957
-0.0017483
-0.00192071
-0.00192972
-0.00218445
-0.00271231
-0.00301104
-0.00300621
-0.00318425
-0.00373793
-0.00427616
-0.00439073
-0.00412324
0.00031342
0.000305665
0.000145984
-0.000380893
-0.000962469
-0.00121656
-0.00128625
-0.00144143
-0.0017329
-0.00193616
-0.00199034
-0.00221407
-0.00268793
-0.00302134
-0.00308115
-0.00323495
-0.00370015
-0.00420647
-0.00437289
-0.00416056
0.000300357
0.000270571
9.41105e-05
-0.000384399
-0.000939422
-0.00123444
-0.00133189
-0.00146255
-0.00172132
-0.00194276
-0.00203986
-0.00224785
-0.00267079
-0.00302057
-0.00313864
-0.00328473
-0.0036752
-0.00413859
-0.0043392
-0.00417613
0.000284912
0.000237397
4.35015e-05
-0.000396694
-0.000916786
-0.00124458
-0.00137507
-0.0014914
-0.00171723
-0.0019437
-0.00207599
-0.00228006
-0.00266093
-0.00301355
-0.00317999
-0.00333058
-0.00366055
-0.00407504
-0.0042933
-0.00417213
0.000266967
0.000205649
-4.87436e-06
-0.000416919
-0.000901378
-0.00124801
-0.00141234
-0.00152571
-0.00172133
-0.00194261
-0.00210144
-0.00230645
-0.00265452
-0.00300351
-0.00320701
-0.00336953
-0.00365345
-0.00401721
-0.0042385
-0.00415169
0.00024635
0.000174427
-5.02245e-05
-0.000442951
-0.000894131
-0.00124717
-0.00144208
-0.00156219
-0.0017332
-0.00194214
-0.00211867
-0.00232692
-0.00264802
-0.00298946
-0.0032213
-0.00339918
-0.00365124
-0.00396663
-0.00417884
-0.00411839
0.000223064
0.000143154
-9.2623e-05
-0.000472756
-0.000895319
-0.0012456
-0.00146436
-0.00159659
-0.00175129
-0.00194463
-0.00212873
-0.00234156
-0.00264131
-0.0029708
-0.0032239
-0.00341835
-0.00365008
-0.00392348
-0.00411735
-0.00407429
0.000197236
0.000110948
-0.000132642
-0.000504256
-0.00090417
-0.00124657
-0.00148072
-0.00162594
-0.00177254
-0.00195148
-0.00213436
-0.0023487
-0.00263352
-0.00294924
-0.00321534
-0.00342635
-0.00364625
-0.00388619
-0.00405684
-0.00402135
0.000168937
7.73342e-05
-0.000171186
-0.000536237
-0.00091955
-0.00125184
-0.00149318
-0.00164972
-0.00179305
-0.00196057
-0.00213925
-0.00234967
-0.00262168
-0.00292528
-0.00319689
-0.00342208
-0.00363713
-0.003852
-0.00399948
-0.00396276
0.000138163
4.20604e-05
-0.000209253
-0.000568416
-0.000939832
-0.0012618
-0.00150408
-0.00166879
-0.00181081
-0.00196891
-0.00214291
-0.0023476
-0.00260518
-0.00289721
-0.00317058
-0.00340546
-0.0036204
-0.00381761
-0.00394494
-0.00390169
0.000104899
4.96419e-06
-0.000247841
-0.000601027
-0.000963322
-0.00127603
-0.0015155
-0.00168418
-0.0018255
-0.00197536
-0.00214255
-0.00234183
-0.00258545
-0.00286363
-0.0031363
-0.00337733
-0.00359389
-0.00378025
-0.00389142
-0.00384024
6.89046e-05
-3.41123e-05
-0.00028752
-0.000634688
-0.000988996
-0.00129381
-0.00152852
-0.00169701
-0.0018366
-0.00197967
-0.0021385
-0.0023299
-0.00256175
-0.00282504
-0.00309242
-0.00333735
-0.0035555
-0.00373619
-0.00383608
-0.00377738
2.95847e-05
-7.52956e-05
-0.00032871
-0.00067003
-0.00101662
-0.00131443
-0.00154363
-0.00170904
-0.00184446
-0.00198037
-0.00213098
-0.00231161
-0.0025309
-0.00278076
-0.00303915
-0.00328487
-0.00350453
-0.00368222
-0.00377541
-0.00371137
-1.28742e-05
-0.000119037
-0.000371773
-0.000707567
-0.00104668
-0.00133758
-0.00156053
-0.00172114
-0.0018504
-0.00197708
-0.00211832
-0.00228752
-0.0024916
-0.0027278
-0.0029762
-0.00321897
-0.00343986
-0.0036162
-0.00370653
-0.00363995
-5.88181e-05
-0.000165551
-0.000417083
-0.000747554
-0.00107981
-0.00136366
-0.00157942
-0.00173324
-0.00185489
-0.00197089
-0.00209976
-0.00225639
-0.00244431
-0.00266383
-0.00290115
-0.00313806
-0.00335859
-0.00353545
-0.00362606
-0.00356065
-0.000108658
-0.000215403
-0.000464993
-0.000790388
-0.00111613
-0.00139278
-0.00160105
-0.0017466
-0.0018584
-0.00196268
-0.00207646
-0.00221663
-0.00238716
-0.00258666
-0.00280896
-0.00303832
-0.00325647
-0.00343525
-0.00352917
-0.00346957
-0.00016279
-0.00026891
-0.00051605
-0.000836732
-0.00115624
-0.00142569
-0.00162581
-0.0017623
-0.00186257
-0.00195307
-0.00204999
-0.00216957
-0.00231843
-0.00249398
-0.00269337
-0.00290951
-0.00312313
-0.00330465
-0.00340629
-0.00335851
-0.000221634
-0.000325818
-0.000570998
-0.00088676
-0.00120052
-0.0014635
-0.00165557
-0.00178177
-0.00186909
-0.00194366
-0.0020204
-0.00211599
-0.00223722
-0.00238308
-0.00255259
-0.00274351
-0.00294244
-0.00312134
-0.00323366
-0.00320708
-0.000286287
-0.000389325
-0.000629268
-0.000940072
-0.00124931
-0.00150627
-0.00169184
-0.00180835
-0.00188192
-0.00193783
-0.00198869
-0.00205461
-0.00214247
-0.00225032
-0.00238213
-0.00253706
-0.00270726
-0.00286651
-0.00297458
-0.00296631
-0.000357316
-0.000457475
-0.000692373
-0.000998751
-0.00130326
-0.00155471
-0.00173552
-0.00184668
-0.00191033
-0.00194478
-0.00196046
-0.00198342
-0.00202467
-0.00208657
-0.00217871
-0.00229838
-0.0024382
-0.00256753
-0.00264625
-0.00261683
-0.000431268
-0.000528756
-0.00076373
-0.00106517
-0.00136161
-0.00160677
-0.00178617
-0.00189992
-0.00196749
-0.00199727
-0.00197263
-0.00190888
-0.0018265
-0.00174795
-0.00172156
-0.00177901
-0.00193433
-0.00216272
-0.00239667
-0.00254436
-0.000513853
-0.0006109
-0.000842429
-0.00113459
-0.00141891
-0.00165597
-0.00183598
-0.00196056
-0.00204658
-0.00211814
-0.00217215
-0.0021795
-0.00205038
-0.0017512
-0.00141004
-0.00112419
-0.000889545
-0.000673892
-0.000476364
-0.000352609
-0.00060975
-0.00070676
-0.000929522
-0.00120812
-0.00147487
-0.00169549
-0.00187078
-0.0020079
-0.0021026
-0.00209748
-0.00191866
-0.00164579
-0.00138577
-0.00118755
-0.00105598
-0.000968877
-0.000912501
-0.0008708
-0.000849243
-0.000883681
-0.000718941
-0.000798621
-0.00101827
-0.00129476
-0.00157105
-0.00180738
-0.00195787
-0.00196433
-0.00185922
-0.0017344
-0.0016269
-0.00155725
-0.00149554
-0.00139798
-0.00125648
-0.00104911
-0.000780379
-0.000480839
-0.000206776
-3.97818e-05
-0.000875615
-0.000933516
-0.00106609
-0.00124773
-0.00143514
-0.00158928
-0.00169369
-0.00173454
-0.00171863
-0.00167271
-0.00158442
-0.00146959
-0.00136583
-0.0012755
-0.00124877
-0.00132258
-0.00150265
-0.00177578
-0.00208798
-0.00236113
-0.00104588
-0.00111379
-0.00116979
-0.00125562
-0.00138415
-0.00152855
-0.00166034
-0.00174365
-0.00175279
-0.00171897
-0.00165111
-0.0015299
-0.00140229
-0.00125786
-0.00106215
-0.000826288
-0.000559676
-0.000297921
-8.95858e-05
-1.62491e-05
-0.00114429
-0.00120669
-0.00124618
-0.0012975
-0.00138489
-0.00148744
-0.00157112
-0.00162377
-0.00162253
-0.00157887
-0.00151775
-0.00141541
-0.00129584
-0.00118999
-0.0010784
-0.000970547
-0.000875765
-0.000809053
-0.000794371
-0.00088013
0.00149494
-0.00153447
-0.00736772
-0.0115436
-0.0119997
-0.0104335
-0.00867134
-0.0073012
-0.00634693
-0.00575392
-0.00546794
-0.00532866
-0.00508837
-0.00463743
-0.00413031
-0.00374685
-0.00349613
-0.0033312
-0.0031628
-0.00284585
-0.00238887
-0.00195442
-0.00160446
-0.00127777
-0.000926812
-0.000557936
-0.000212655
7.97739e-05
0.000346022
0.000625968
0.000905368
0.00115187
0.00138176
0.0016479
0.00196792
0.00230328
0.00262484
0.00295292
0.00330608
0.00365885
0.00398826
0.00431486
0.00465712
0.00499187
0.00530295
0.00563195
0.00600071
0.00637423
0.00673655
0.00712188
0.00753954
0.00794629
0.00833812
0.00875556
0.00917584
0.00958311
0.0100119
0.0104605
0.0109116
0.0113807
0.0118589
0.0123341
0.0128163
0.0133101
0.0138141
0.0143383
0.0148795
0.0154257
0.015976
0.0165335
0.0171024
0.0176883
0.0182922
0.0189078
0.0195332
0.0201665
0.0208109
0.0214689
0.0221434
0.0228325
0.0235324
0.0242452
0.0249708
0.0257106
0.0264627
0.0272321
0.0280138
0.0288134
0.0296233
0.0304515
0.0312907
0.0321511
0.0330197
0.0339111
0.0348074
0.035727
0.0366528
0.0375705
0.038486
0.0393745
0.00109788
-0.00161734
-0.00726002
-0.011417
-0.0119302
-0.0103985
-0.00864758
-0.00728316
-0.00633283
-0.0057424
-0.00545852
-0.00532137
-0.00508287
-0.00463291
-0.00412612
-0.00374288
-0.00349241
-0.00332785
-0.00316005
-0.00284352
-0.00238656
-0.00195209
-0.00160229
-0.00127584
-0.000925081
-0.000556325
-0.000211104
8.12411e-05
0.000347362
0.000627217
0.000906586
0.00115305
0.00138284
0.00164889
0.00196886
0.00230421
0.00262572
0.00295373
0.00330685
0.0036596
0.00398898
0.00431553
0.00465776
0.0049925
0.00530355
0.00563249
0.00600123
0.00637474
0.00673702
0.00712231
0.00753996
0.00794671
0.00833851
0.00875593
0.00917621
0.00958346
0.0100122
0.0104608
0.0109119
0.011381
0.0118591
0.0123343
0.0128166
0.0133104
0.0138143
0.0143385
0.0148797
0.0154259
0.0159762
0.0165337
0.0171026
0.0176885
0.0182924
0.0189079
0.0195333
0.0201666
0.0208111
0.0214691
0.0221436
0.0228326
0.0235325
0.0242454
0.0249709
0.0257107
0.0264628
0.0272322
0.0280139
0.0288135
0.0296234
0.0304516
0.0312908
0.0321512
0.0330198
0.0339112
0.0348074
0.0357271
0.0366529
0.0375705
0.0384861
0.0393746
0.000642227
-0.00170533
-0.00703601
-0.0111657
-0.011806
-0.0103528
-0.00862512
-0.00726566
-0.0063179
-0.00573002
-0.00544791
-0.00531203
-0.00507502
-0.00462671
-0.00412135
-0.0037391
-0.00348905
-0.00332473
-0.00315741
-0.00284131
-0.00238443
-0.00194998
-0.00160029
-0.00127399
-0.000923386
-0.000554774
-0.000209652
8.25827e-05
0.00034858
0.000628357
0.00090768
0.00115407
0.00138376
0.00164972
0.00196968
0.00230503
0.0026265
0.00295445
0.00330754
0.00366028
0.00398963
0.00431612
0.00465833
0.00499306
0.00530406
0.00563295
0.00600168
0.00637519
0.00673743
0.00712268
0.00754034
0.00794709
0.00833885
0.00875626
0.00917654
0.00958376
0.0100125
0.0104611
0.0109121
0.0113812
0.0118594
0.0123346
0.0128168
0.0133106
0.0138145
0.0143387
0.0148799
0.0154261
0.0159763
0.0165339
0.0171027
0.0176886
0.0182926
0.0189081
0.0195335
0.0201668
0.0208112
0.0214692
0.0221437
0.0228327
0.0235326
0.0242455
0.024971
0.0257108
0.0264629
0.0272323
0.028014
0.0288136
0.0296235
0.0304516
0.0312909
0.0321513
0.0330199
0.0339112
0.0348075
0.0357271
0.036653
0.0375706
0.0384862
0.0393748
0.00021703
-0.00176594
-0.00674373
-0.0108358
-0.0116314
-0.0102897
-0.00859598
-0.00724244
-0.0062978
-0.00571451
-0.00543516
-0.00529926
-0.00506225
-0.00461599
-0.00411389
-0.00373417
-0.00348495
-0.00332055
-0.0031535
-0.00283821
-0.00238208
-0.00194793
-0.00159812
-0.00127169
-0.000921252
-0.000552941
-0.000208001
8.41532e-05
0.000350047
0.00062968
0.000908853
0.00115512
0.00138471
0.00165059
0.00197052
0.00230588
0.00262734
0.00295523
0.00330828
0.003661
0.00399031
0.00431677
0.00465895
0.00499365
0.00530459
0.00563342
0.00600215
0.00637565
0.00673785
0.00712307
0.00754074
0.00794748
0.0083392
0.0087566
0.00917688
0.00958406
0.0100128
0.0104613
0.0109124
0.0113815
0.0118596
0.0123348
0.012817
0.0133108
0.0138147
0.0143389
0.0148801
0.0154263
0.0159765
0.0165341
0.0171029
0.0176888
0.0182927
0.0189082
0.0195336
0.0201669
0.0208113
0.0214693
0.0221438
0.0228329
0.0235327
0.0242456
0.0249711
0.0257109
0.026463
0.0272324
0.0280141
0.0288137
0.0296235
0.0304517
0.031291
0.0321514
0.0330199
0.0339113
0.0348076
0.0357272
0.036653
0.0375707
0.0384863
0.039375
-0.00017936
-0.00183608
-0.00644294
-0.0104816
-0.0114362
-0.0102189
-0.00856391
-0.0072149
-0.00627258
-0.00569545
-0.00541978
-0.00528237
-0.00504361
-0.00459976
-0.00410288
-0.00372735
-0.00347935
-0.00331415
-0.00314679
-0.00283298
-0.00237902
-0.0019459
-0.00159568
-0.00126867
-0.000918441
-0.000550757
-0.000206108
8.61733e-05
0.000352129
0.000631498
0.000910292
0.00115636
0.00138587
0.00165163
0.00197144
0.0023068
0.0026283
0.00295618
0.00330916
0.00366183
0.00399113
0.00431756
0.00465968
0.00499432
0.00530519
0.00563399
0.0060027
0.00637618
0.00673833
0.00712353
0.0075412
0.00794793
0.0083396
0.00875699
0.00917727
0.0095844
0.0100131
0.0104617
0.0109127
0.0113818
0.0118599
0.0123351
0.0128173
0.013311
0.0138149
0.0143391
0.0148803
0.0154265
0.0159767
0.0165342
0.0171031
0.0176889
0.0182929
0.0189084
0.0195338
0.0201671
0.0208115
0.0214695
0.022144
0.022833
0.0235329
0.0242457
0.0249712
0.0257111
0.0264631
0.0272325
0.0280142
0.0288138
0.0296236
0.0304518
0.031291
0.0321515
0.03302
0.0339114
0.0348077
0.0357273
0.0366531
0.0375708
0.0384864
0.0393754
-0.000565009
-0.00194023
-0.00615154
-0.0101141
-0.0112262
-0.0101431
-0.00853126
-0.00718533
-0.00624395
-0.00567358
-0.00540226
-0.00526246
-0.00502067
-0.00457941
-0.00408913
-0.00371892
-0.00347208
-0.00330497
-0.00313638
-0.00282469
-0.00237463
-0.00194367
-0.0015929
-0.00126482
-0.00091488
-0.00054836
-0.000204233
8.85253e-05
0.000354962
0.000634058
0.000912221
0.00115799
0.00138746
0.001653
0.00197249
0.00230777
0.0026294
0.0029573
0.00331016
0.00366278
0.00399215
0.00431857
0.00466056
0.00499509
0.00530592
0.00563468
0.00600335
0.00637678
0.00673891
0.00712408
0.00754174
0.00794845
0.00834007
0.00875745
0.00917772
0.00958479
0.0100135
0.010462
0.010913
0.0113821
0.0118603
0.0123354
0.0128176
0.0133113
0.0138152
0.0143393
0.0148805
0.0154267
0.0159769
0.0165345
0.0171033
0.0176891
0.0182931
0.0189086
0.019534
0.0201672
0.0208116
0.0214696
0.0221441
0.0228331
0.023533
0.0242458
0.0249714
0.0257112
0.0264633
0.0272326
0.0280143
0.0288139
0.0296237
0.0304519
0.0312911
0.0321515
0.0330201
0.0339115
0.0348077
0.0357274
0.0366532
0.0375709
0.0384866
0.0393759
-0.000944045
-0.00207726
-0.00586888
-0.00973138
-0.0109989
-0.0100609
-0.00849808
-0.00715459
-0.00621257
-0.00564907
-0.00538288
-0.00524072
-0.00499547
-0.00455701
-0.00407417
-0.00370977
-0.00346363
-0.00329328
-0.00312236
-0.00281315
-0.00236849
-0.00194081
-0.00158957
-0.00126009
-0.000910578
-0.000545848
-0.000202633
9.08822e-05
0.000358305
0.000637288
0.000914739
0.00116028
0.00138981
0.00165497
0.0019738
0.00230885
0.00263068
0.0029586
0.00331122
0.00366379
0.00399338
0.00431988
0.00466168
0.00499604
0.00530686
0.00563558
0.00600411
0.00637746
0.0067396
0.00712476
0.00754238
0.00794906
0.00834065
0.008758
0.00917823
0.00958526
0.0100139
0.0104625
0.0109134
0.0113825
0.0118606
0.0123358
0.0128179
0.0133116
0.0138155
0.0143396
0.0148808
0.015427
0.0159772
0.0165347
0.0171035
0.0176893
0.0182933
0.0189088
0.0195342
0.0201674
0.0208118
0.0214698
0.0221443
0.0228333
0.0235332
0.024246
0.0249715
0.0257113
0.0264634
0.0272327
0.0280144
0.028814
0.0296239
0.030452
0.0312912
0.0321517
0.0330202
0.0339116
0.0348078
0.0357275
0.0366533
0.037571
0.0384868
0.0393766
-0.00130743
-0.00223819
-0.00559472
-0.0093328
-0.0107525
-0.00997125
-0.0084647
-0.00712357
-0.00617885
-0.0056219
-0.0053617
-0.00521772
-0.004969
-0.00453349
-0.00405861
-0.00370037
-0.00345458
-0.00327997
-0.00310573
-0.00279896
-0.00236058
-0.00193702
-0.00158552
-0.00125455
-0.000905622
-0.000543204
-0.000201328
9.29985e-05
0.000361725
0.000640767
0.000917622
0.00116325
0.00139315
0.00165783
0.00197559
0.00231017
0.00263223
0.00296012
0.00331229
0.00366474
0.00399473
0.00432147
0.00466303
0.0049972
0.00530809
0.00563678
0.00600506
0.00637826
0.00674043
0.00712558
0.00754312
0.00794977
0.00834138
0.00875869
0.00917885
0.00958582
0.0100144
0.010463
0.0109139
0.011383
0.0118611
0.0123362
0.0128183
0.013312
0.0138158
0.0143399
0.0148811
0.0154273
0.0159775
0.016535
0.0171038
0.0176896
0.0182935
0.018909
0.0195344
0.0201676
0.020812
0.02147
0.0221445
0.0228335
0.0235333
0.0242461
0.0249717
0.0257115
0.0264635
0.0272328
0.0280145
0.0288142
0.029624
0.0304522
0.0312914
0.0321518
0.0330203
0.0339117
0.034808
0.0357276
0.0366535
0.0375712
0.0384872
0.0393774
-0.00164518
-0.00241757
-0.00533513
-0.00892203
-0.0104862
-0.00987302
-0.0084313
-0.00709292
-0.00614303
-0.00559189
-0.00533865
-0.00519366
-0.00494152
-0.00450893
-0.00404228
-0.00369058
-0.00344517
-0.00326581
-0.00308756
-0.00278297
-0.00235118
-0.00193222
-0.00158072
-0.00124835
-0.000900158
-0.000540368
-0.000200135
9.48944e-05
0.000364938
0.000644033
0.000920442
0.00116665
0.00139745
0.00166172
0.00197807
0.00231191
0.00263417
0.00296198
0.00331342
0.00366556
0.00399607
0.00432321
0.00466455
0.00499856
0.00530966
0.00563837
0.00600627
0.00637921
0.00674142
0.00712655
0.00754394
0.00795058
0.00834226
0.00875953
0.0091796
0.00958652
0.0100151
0.0104636
0.0109145
0.0113836
0.0118617
0.0123367
0.0128188
0.0133124
0.0138162
0.0143403
0.0148815
0.0154277
0.0159778
0.0165353
0.0171041
0.0176899
0.0182938
0.0189093
0.0195346
0.0201679
0.0208122
0.0214702
0.0221447
0.0228337
0.0235335
0.0242463
0.0249719
0.0257117
0.0264637
0.027233
0.0280147
0.0288143
0.0296241
0.0304523
0.0312915
0.0321519
0.0330205
0.0339118
0.0348081
0.0357277
0.0366536
0.0375714
0.0384875
0.0393784
-0.00195038
-0.0026117
-0.00509816
-0.00850397
-0.0101994
-0.0097642
-0.0083971
-0.0070629
-0.0061053
-0.00555892
-0.00531356
-0.00516849