/*--------------------------------*- C++ -*----------------------------------*\
| =========                 |                                                 |
| \\      /  F ield         | OpenFOAM: The Open Source CFD Toolbox           |
|  \\    /   O peration     | Version:  2506                                  |
|   \\  /    A nd           | Website:  www.openfoam.com                      |
|    \\/     M anipulation  |                                                 |
\*---------------------------------------------------------------------------*/
FoamFile
{
    version     2.0;
    format      ascii;
    arch        "LSB;label=32;scalar=64";
    class       surfaceScalarField;
    location    "3.15";
    object      phi;
}
// * * * * * * * * * * * * * * * * * * * * * * * * * * * * * * * * * * * * * //

dimensions      [0 3 -1 0 0 0 0];

oriented        oriented;

internalField   nonuniform List<scalar> 
19000
(
1.20105e-06
4.33434e-08
1.16058e-06
5.04666e-07
1.10741e-06
8.90692e-08
1.16076e-06
-9.96253e-07
1.24702e-06
-1.36118e-07
1.15645e-06
3.27186e-07
1.12617e-06
5.4426e-07
1.13866e-06
5.05806e-07
1.11443e-06
-3.02171e-07
1.14155e-06
-2.82815e-07
1.16195e-06
-3.34169e-07
1.14794e-06
-3.11315e-07
1.16723e-06
1.39833e-08
1.14952e-06
-2.78728e-07
1.16842e-06
2.37064e-07
1.13672e-06
1.30052e-07
1.1468e-06
3.90385e-07
1.11997e-06
2.8751e-07
1.11382e-06
2.80692e-07
2.35319e-07
1.0876e-06
1.25619e-06
1.14173e-08
1.22202e-06
5.38834e-07
1.16329e-06
1.47796e-07
1.21124e-06
-1.0442e-06
1.30151e-06
-2.26383e-07
1.21605e-06
4.12646e-07
1.17691e-06
5.83393e-07
1.20071e-06
4.82007e-07
1.17533e-06
-2.76789e-07
1.19968e-06
-3.07161e-07
1.21818e-06
-3.52674e-07
1.20703e-06
-3.00162e-07
1.22084e-06
1.68288e-10
1.20793e-06
-2.6581e-07
1.21613e-06
2.28862e-07
1.20167e-06
1.44512e-07
1.18723e-06
4.0482e-07
1.18989e-06
2.84849e-07
1.15041e-06
3.20178e-07
2.15786e-07
1.16994e-06
1.31112e-06
-1.69161e-08
1.2894e-06
5.60554e-07
1.22587e-06
2.11319e-07
1.2631e-06
-1.08143e-06
1.35252e-06
-3.15809e-07
1.2861e-06
4.79066e-07
1.23268e-06
6.36821e-07
1.26378e-06
4.50906e-07
1.24015e-06
-2.53164e-07
1.26061e-06
-3.27623e-07
1.27487e-06
-3.66932e-07
1.27139e-06
-2.96679e-07
1.27728e-06
-5.7258e-09
1.27227e-06
-2.608e-07
1.27068e-06
2.30453e-07
1.26696e-06
1.48239e-07
1.24622e-06
4.25556e-07
1.24804e-06
2.83033e-07
1.22294e-06
3.45278e-07
2.24533e-07
1.21419e-06
1.36626e-06
-3.9075e-08
1.35957e-06
5.67244e-07
1.29532e-06
2.75568e-07
1.31925e-06
-1.10536e-06
1.40138e-06
-3.97941e-07
1.36012e-06
5.20328e-07
1.2975e-06
6.99443e-07
1.32729e-06
4.21117e-07
1.30915e-06
-2.35028e-07
1.3233e-06
-3.41771e-07
1.33392e-06
-3.77551e-07
1.33643e-06
-2.99189e-07
1.33796e-06
-7.25345e-09
1.33592e-06
-2.58763e-07
1.33269e-06
2.33686e-07
1.32971e-06
1.51212e-07
1.31557e-06
4.39697e-07
1.30857e-06
2.90039e-07
1.29713e-06
3.56718e-07
2.4268e-07
1.27898e-06
1.42266e-06
-5.33783e-08
1.43001e-06
5.59886e-07
1.37116e-06
3.34428e-07
1.3808e-06
-1.115e-06
1.4498e-06
-4.66937e-07
1.43321e-06
5.36913e-07
1.37228e-06
7.6037e-07
1.39357e-06
3.99831e-07
1.38237e-06
-2.23824e-07
1.38933e-06
-3.48738e-07
1.39712e-06
-3.85341e-07
1.40257e-06
-3.04639e-07
1.40292e-06
-7.60127e-09
1.39943e-06
-2.55274e-07
1.39673e-06
2.36383e-07
1.39161e-06
1.56339e-07
1.38383e-06
4.47478e-07
1.37281e-06
3.01057e-07
1.36682e-06
3.62705e-07
2.6072e-07
1.34878e-06
1.48203e-06
-5.97347e-08
1.49967e-06
5.42248e-07
1.45203e-06
3.82068e-07
1.44775e-06
-1.11072e-06
1.50015e-06
-5.19336e-07
1.50364e-06
5.33422e-07
1.45468e-06
8.09333e-07
1.46559e-06
3.8892e-07
1.45908e-06
-2.17318e-07
1.46013e-06
-3.49783e-07
1.46483e-06
-3.90042e-07
1.47097e-06
-3.10781e-07
1.47156e-06
-8.19026e-09
1.46509e-06
-2.48805e-07
1.4614e-06
2.40074e-07
1.454e-06
1.63744e-07
1.45003e-06
4.51446e-07
1.43856e-06
3.12522e-07
1.43634e-06
3.64928e-07
2.7701e-07
1.42005e-06
1.54618e-06
-5.96973e-08
1.56943e-06
5.18997e-07
1.53611e-06
4.15385e-07
1.51962e-06
-1.09423e-06
1.55487e-06
-5.54588e-07
1.5726e-06
5.1569e-07
1.54055e-06
8.41386e-07
1.54389e-06
3.85577e-07
1.5385e-06
-2.11931e-07
1.53536e-06
-3.46639e-07
1.53652e-06
-3.91206e-07
1.54186e-06
-3.16119e-07
1.54299e-06
-9.32611e-09
1.53395e-06
-2.39758e-07
1.52853e-06
2.45493e-07
1.51906e-06
1.73209e-07
1.51777e-06
4.52734e-07
1.50711e-06
3.23187e-07
1.50896e-06
3.63076e-07
2.90991e-07
1.49498e-06
1.61613e-06
-5.56972e-08
1.6411e-06
4.94024e-07
1.62168e-06
4.34803e-07
1.596e-06
-1.06854e-06
1.61577e-06
-5.74358e-07
1.6422e-06
4.89261e-07
1.6266e-06
8.56993e-07
1.62668e-06
3.8549e-07
1.62016e-06
-2.0541e-07
1.61399e-06
-3.4047e-07
1.6116e-06
-3.8881e-07
1.61523e-06
-3.19753e-07
1.61663e-06
-1.07242e-08
1.60604e-06
-2.29169e-07
1.59981e-06
2.51726e-07
1.58886e-06
1.84157e-07
1.59021e-06
4.51391e-07
1.58059e-06
3.32797e-07
1.58636e-06
3.57309e-07
3.02332e-07
1.57502e-06
1.69187e-06
-4.99973e-08
1.71616e-06
4.69742e-07
1.70776e-06
4.43202e-07
1.67673e-06
-1.03752e-06
1.68383e-06
-5.81458e-07
1.71421e-06
4.58886e-07
1.71172e-06
8.59482e-07
1.71185e-06
3.85364e-07
1.70384e-06
-1.97401e-07
1.69549e-06
-3.3212e-07
1.68988e-06
-3.83203e-07
1.6914e-06
-3.21271e-07
1.69258e-06
-1.19078e-08
1.68134e-06
-2.17925e-07
1.67591e-06
2.57151e-07
1.66443e-06
1.95641e-07
1.66883e-06
4.46995e-07
1.66023e-06
3.41392e-07
1.66907e-06
3.48475e-07
3.1105e-07
1.66035e-06
1.77278e-06
-4.40595e-08
1.79527e-06
4.47259e-07
1.79435e-06
4.44114e-07
1.76166e-06
-1.00482e-06
1.75917e-06
-5.78972e-07
1.78981e-06
4.28243e-07
1.79658e-06
8.52712e-07
1.79831e-06
3.83638e-07
1.78949e-06
-1.8858e-07
1.77985e-06
-3.22478e-07
1.77163e-06
-3.74984e-07
1.77093e-06
-3.20569e-07
1.77149e-06
-1.24672e-08
1.76005e-06
-2.06494e-07
1.75689e-06
2.60314e-07
1.74581e-06
2.06719e-07
1.75367e-06
4.39137e-07
1.74604e-06
3.4902e-07
1.75673e-06
3.37785e-07
3.17339e-07
1.75044e-06
1.85821e-06
-3.85249e-08
1.87859e-06
4.26884e-07
1.88227e-06
4.40435e-07
1.85055e-06
-9.73104e-07
1.84126e-06
-5.69688e-07
1.86979e-06
3.99718e-07
1.88259e-06
8.39912e-07
1.88621e-06
3.8002e-07
1.87737e-06
-1.79743e-07
1.86729e-06
-3.12396e-07
1.85722e-06
-3.64919e-07
1.85442e-06
-3.17764e-07
1.85413e-06
-1.21777e-08
1.84258e-06
-1.94946e-07
1.84256e-06
2.60332e-07
1.83249e-06
2.16789e-07
1.84385e-06
4.27783e-07
1.8372e-06
3.55665e-07
1.84846e-06
3.26523e-07
3.21349e-07
1.84445e-06
1.94784e-06
-3.35271e-08
1.96621e-06
4.0852e-07
1.97258e-06
4.34057e-07
1.94316e-06
-9.43677e-07
1.9293e-06
-5.55837e-07
1.95459e-06
3.74429e-07
1.97113e-06
8.23373e-07
1.97638e-06
3.74773e-07
1.96803e-06
-1.71393e-07
1.95806e-06
-3.02428e-07
1.94694e-06
-3.53799e-07
1.94231e-06
-3.13133e-07
1.9412e-06
-1.10671e-08
1.92934e-06
-1.8308e-07
1.93268e-06
2.56983e-07
1.92378e-06
2.25691e-07
1.93815e-06
4.13415e-07
1.93257e-06
3.61244e-07
1.94323e-06
3.1586e-07
3.23043e-07
1.94154e-06
2.04166e-06
-2.90024e-08
2.05832e-06
3.91867e-07
2.06629e-06
4.26081e-07
2.03935e-06
-9.16739e-07
2.02257e-06
-5.39056e-07
2.04448e-06
3.5252e-07
2.06332e-06
8.04537e-07
2.06982e-06
3.68269e-07
2.06216e-06
-1.63733e-07
2.05246e-06
-2.92721e-07
2.04093e-06
-3.42276e-07
2.03481e-06
-3.07016e-07
2.03313e-06
-9.3862e-09
2.02068e-06
-1.70624e-07
2.02706e-06
2.506e-07
2.01917e-06
2.33585e-07
2.03565e-06
3.96929e-07
2.03131e-06
3.65587e-07
2.04042e-06
3.06749e-07
3.22238e-07
2.04123e-06
2.13986e-06
-2.48579e-08
2.15519e-06
3.7653e-07
2.16414e-06
4.17139e-07
2.1392e-06
-8.918e-07
2.12066e-06
-5.20515e-07
2.13962e-06
3.33552e-07
2.15994e-06
7.84219e-07
2.16737e-06
3.60843e-07
2.16042e-06
-1.56786e-07
2.15081e-06
-2.83109e-07
2.13931e-06
-3.30775e-07
2.132e-06
-2.99706e-07
2.13011e-06
-7.49252e-09
2.11686e-06
-1.57381e-07
2.12563e-06
2.4183e-07
2.1185e-06
2.40719e-07
2.13603e-06
3.79399e-07
2.13317e-06
3.68444e-07
2.14019e-06
2.99736e-07
3.18877e-07
2.14355e-06
2.24266e-06
-2.10247e-08
2.25708e-06
3.62101e-07
2.26662e-06
4.07604e-07
2.24292e-06
-8.68103e-07
2.22346e-06
-5.01049e-07
2.24016e-06
3.16846e-07
2.26156e-06
7.62823e-07
2.2696e-06
3.52801e-07
2.26332e-06
-1.50511e-07
2.2535e-06
-2.73286e-07
2.24224e-06
-3.19511e-07
2.23395e-06
-2.91417e-07
2.23215e-06
-5.69898e-09
2.21808e-06
-1.43309e-07
2.22851e-06
2.31399e-07
2.222e-06
2.47235e-07
2.23955e-06
3.61843e-07
2.23848e-06
3.69517e-07
2.24333e-06
2.94885e-07
3.13247e-07
2.24896e-06
2.35031e-06
-1.74603e-08
2.36417e-06
3.48242e-07
2.37409e-06
3.97679e-07
2.35089e-06
-8.44899e-07
2.3311e-06
-4.81259e-07
2.34621e-06
3.01739e-07
2.36853e-06
7.40501e-07
2.37689e-06
3.44442e-07
2.37124e-06
-1.44861e-07
2.3609e-06
-2.62948e-07
2.34993e-06
-3.08538e-07
2.34081e-06
-2.82297e-07
2.3393e-06
-4.18691e-09
2.3245e-06
-1.28514e-07
2.33593e-06
2.19973e-07
2.33007e-06
2.5309e-07
2.34683e-06
3.45085e-07
2.34781e-06
3.68539e-07
2.35073e-06
2.91959e-07
3.05881e-07
2.3581e-06
2.46308e-06
-1.41409e-08
2.47659e-06
3.34727e-07
2.48684e-06
3.87434e-07
2.46352e-06
-8.21586e-07
2.44384e-06
-4.61571e-07
2.45784e-06
2.87733e-07
2.48107e-06
7.17271e-07
2.48947e-06
3.36045e-07
2.48442e-06
-1.39813e-07
2.47335e-06
-2.5188e-07
2.46263e-06
-2.97816e-07
2.45282e-06
-2.72485e-07
2.45162e-06
-2.98437e-09
2.43633e-06
-1.13222e-07
2.44816e-06
2.08134e-07
2.44316e-06
2.58092e-07
2.45857e-06
3.29681e-07
2.46171e-06
3.65402e-07
2.46311e-06
2.90553e-07
2.97409e-07
2.47158e-06
2.58121e-06
-1.10574e-08
2.59449e-06
3.21451e-07
2.60509e-06
3.76832e-07
2.58124e-06
-7.97743e-07
2.56196e-06
-4.42289e-07
2.57515e-06
2.74547e-07
2.59933e-06
6.93088e-07
2.60753e-06
3.27849e-07
2.60308e-06
-1.35363e-07
2.59119e-06
-2.3999e-07
2.58062e-06
-2.87246e-07
2.57028e-06
-2.62146e-07
2.56928e-06
-1.98956e-09
2.5538e-06
-9.77345e-08
2.56555e-06
1.96384e-07
2.56164e-06
2.61996e-07
2.57542e-06
3.15903e-07
2.58059e-06
3.6023e-07
2.58099e-06
2.9015e-07
2.88463e-07
2.58994e-06
2.70499e-06
-8.21472e-09
2.71802e-06
3.08418e-07
2.72909e-06
3.65763e-07
2.70444e-06
-7.73099e-07
2.68579e-06
-4.23632e-07
2.69824e-06
2.62097e-07
2.72342e-06
6.67902e-07
2.73124e-06
3.20032e-07
2.72739e-06
-1.31512e-07
2.71471e-06
-2.27305e-07
2.70414e-06
-2.76683e-07
2.69349e-06
-2.51497e-07
2.69252e-06
-1.01197e-09
2.67715e-06
-8.23725e-08
2.68842e-06
1.85117e-07
2.68578e-06
2.64636e-07
2.6979e-06
3.03788e-07
2.70481e-06
3.53313e-07
2.70474e-06
2.90224e-07
2.79602e-07
2.7136e-06
2.83469e-06
-5.63212e-09
2.84739e-06
2.95712e-07
2.85908e-06
3.54073e-07
2.83347e-06
-7.47492e-07
2.81562e-06
-4.05778e-07
2.82729e-06
2.5043e-07
2.8535e-06
6.4169e-07
2.86083e-06
3.12702e-07
2.85756e-06
-1.28242e-07
2.84422e-06
-2.13962e-07
2.83348e-06
-2.65947e-07
2.82277e-06
-2.40787e-07
2.82159e-06
1.65217e-10
2.80663e-06
-6.74146e-08
2.81715e-06
1.74596e-07
2.81581e-06
2.65978e-07
2.82639e-06
2.93207e-07
2.83473e-06
3.44979e-07
2.83459e-06
2.90365e-07
2.71223e-07
2.84297e-06
2.9706e-06
-3.33997e-09
2.98285e-06
2.83461e-07
2.99533e-06
3.41598e-07
2.96865e-06
-7.20817e-07
2.95176e-06
-3.8888e-07
2.96254e-06
2.39645e-07
2.98975e-06
6.1448e-07
2.99656e-06
3.05892e-07
2.99381e-06
-1.25488e-07
2.98002e-06
-2.00172e-07
2.9689e-06
-2.54832e-07
2.95838e-06
-2.30266e-07
2.95682e-06
1.72939e-09
2.94244e-06
-5.304e-08
2.95211e-06
1.64926e-07
2.95195e-06
2.6614e-07
2.96122e-06
2.8394e-07
2.97067e-06
3.35522e-07
2.97075e-06
2.90285e-07
2.63595e-07
2.97838e-06
3.11304e-06
-1.37578e-09
3.12469e-06
2.71811e-07
3.13811e-06
3.28178e-07
3.11029e-06
-6.93001e-07
3.09448e-06
-3.73067e-07
3.10429e-06
2.29834e-07
3.13242e-06
5.86354e-07
3.13875e-06
2.99565e-07
3.13639e-06
-1.23128e-07
3.12243e-06
-1.86211e-07
3.1107e-06
-2.43102e-07
3.10059e-06
-2.2016e-07
3.09852e-06
3.79662e-09
3.08479e-06
-3.93045e-08
3.09363e-06
1.56083e-07
3.09447e-06
2.65301e-07
3.10261e-06
2.75805e-07
3.11299e-06
3.25133e-07
3.11349e-06
2.89787e-07
2.56904e-07
3.12018e-06
3.26231e-06
2.20758e-10
3.27322e-06
2.60905e-07
3.28772e-06
3.13675e-07
3.25871e-06
-6.6399e-07
3.24408e-06
-3.58433e-07
3.25287e-06
2.2104e-07
3.28178e-06
5.5745e-07
3.28773e-06
2.93609e-07
3.28558e-06
-1.20978e-07
3.27176e-06
-1.72393e-07
3.2592e-06
-2.30538e-07
3.24965e-06
-2.10607e-07
3.24708e-06
6.36549e-09
3.23389e-06
-2.61211e-08
3.24202e-06
1.47953e-07
3.24372e-06
2.63609e-07
3.25078e-06
2.68744e-07
3.26198e-06
3.13927e-07
3.26309e-06
2.88676e-07
2.51279e-07
3.26872e-06
3.41874e-06
1.41146e-09
3.42879e-06
2.50859e-07
3.44447e-06
2.97987e-07
3.41425e-06
-6.33765e-07
3.40084e-06
-3.4502e-07
3.40864e-06
2.13241e-07
3.43812e-06
5.27967e-07
3.44389e-06
2.87843e-07
3.44171e-06
-1.18798e-07
3.42835e-06
-1.59037e-07
3.41478e-06
-2.16965e-07
3.40581e-06
-2.01637e-07
3.40285e-06
9.32127e-09
3.39003e-06
-1.32994e-08
3.39758e-06
1.40402e-07
3.40005e-06
2.61138e-07
3.40599e-06
2.62802e-07
3.41789e-06
3.02033e-07
3.4199e-06
2.86668e-07
2.46825e-07
3.42435e-06
3.58266e-06
2.16226e-09
3.59175e-06
2.41769e-07
3.60869e-06
2.81051e-07
3.57727e-06
-6.02352e-07
3.56506e-06
-3.32804e-07
3.57195e-06
2.06344e-07
3.60176e-06
4.98162e-07
3.60759e-06
2.82016e-07
3.6051e-06
-1.1631e-07
3.59251e-06
-1.46448e-07
3.57783e-06
-2.02287e-07
3.56935e-06
-1.9316e-07
3.56622e-06
1.24518e-08
3.55353e-06
-6.07873e-10
3.56056e-06
1.33369e-07
3.56388e-06
2.57824e-07
3.5686e-06
2.58078e-07
3.58096e-06
2.89681e-07
3.58423e-06
2.83392e-07
2.4356e-07
3.5875e-06
3.75442e-06
2.44528e-09
3.76249e-06
2.33705e-07
3.78069e-06
2.62848e-07
3.74817e-06
-5.69835e-07
3.73707e-06
-3.217e-07
3.74322e-06
2.00188e-07
3.77303e-06
4.68358e-07
3.77922e-06
2.75827e-07
3.77614e-06
-1.13231e-07
3.76455e-06
-1.34861e-07
3.7488e-06
-1.86537e-07
3.7406e-06
-1.84955e-07
3.73756e-06
1.54911e-08
3.72481e-06
1.21434e-08
3.73128e-06
1.2689e-07
3.73558e-06
2.53533e-07
3.73912e-06
2.54531e-07
3.75145e-06
2.77352e-07
3.75638e-06
2.78461e-07
2.41306e-07
3.75864e-06
3.93439e-06
2.23961e-09
3.94138e-06
2.26716e-07
3.96082e-06
2.43409e-07
3.92735e-06
-5.36369e-07
3.91721e-06
-3.11557e-07
3.92285e-06
1.94546e-07
3.95227e-06
4.38938e-07
3.95917e-06
2.68926e-07
3.95523e-06
-1.0929e-07
3.94479e-06
-1.24417e-07
3.92813e-06
-1.69874e-07
3.9199e-06
-1.76729e-07
3.91721e-06
1.818e-08
3.9043e-06
2.50544e-08
3.91007e-06
1.2112e-07
3.91551e-06
2.48092e-07
3.91805e-06
2.51991e-07
3.92978e-06
2.65619e-07
3.93656e-06
2.71687e-07
2.39616e-07
3.93825e-06
4.12296e-06
1.53349e-09
4.12885e-06
2.20823e-07
4.14943e-06
2.2283e-07
4.11525e-06
-5.02188e-07
4.10585e-06
-3.02158e-07
4.11127e-06
1.89124e-07
4.13988e-06
4.10329e-07
4.14782e-06
2.60982e-07
4.14284e-06
-1.04307e-07
4.13353e-06
-1.15108e-07
4.11624e-06
-1.52576e-07
4.10767e-06
-1.68163e-07
4.10552e-06
2.0325e-08
4.09252e-06
3.80632e-08
4.09731e-06
1.1633e-07
4.10401e-06
2.41389e-07
4.1059e-06
2.50095e-07
4.11646e-06
2.5506e-07
4.12495e-06
2.63196e-07
2.37794e-07
4.12678e-06
4.32051e-06
3.26011e-10
4.32532e-06
2.16009e-07
4.34688e-06
2.01274e-07
4.31229e-06
-4.67602e-07
4.30336e-06
-2.93222e-07
4.30893e-06
1.83555e-07
4.33626e-06
3.82997e-07
4.34555e-06
2.51695e-07
4.33945e-06
-9.82126e-08
4.33112e-06
-1.06775e-07
4.31353e-06
-1.34988e-07
4.30437e-06
-1.58999e-07
4.30285e-06
2.18411e-08
4.28992e-06
5.09971e-08
4.29347e-06
1.12775e-07
4.30142e-06
2.33445e-07
4.30309e-06
2.48419e-07
4.3121e-06
2.46052e-07
4.32185e-06
2.53443e-07
2.35085e-07
4.32456e-06
4.52747e-06
-1.37002e-09
4.53126e-06
2.12222e-07
4.55355e-06
1.78976e-07
4.51895e-06
-4.32995e-07
4.51013e-06
-2.84409e-07
4.51626e-06
1.77425e-07
4.54186e-06
3.574e-07
4.55266e-06
2.40892e-07
4.54558e-06
-9.11269e-08
4.53794e-06
-9.91414e-08
4.52041e-06
-1.17449e-07
4.51047e-06
-1.4906e-07
4.50958e-06
2.27317e-08
4.49696e-06
6.36151e-08
4.49905e-06
1.10679e-07
4.50812e-06
2.24378e-07
4.50999e-06
2.46546e-07
4.51734e-06
2.38703e-07
4.52766e-06
2.43122e-07
2.30903e-07
4.53185e-06
4.74427e-06
-3.52593e-09
4.74713e-06
2.0936e-07
4.76985e-06
1.56259e-07
4.73569e-06
-3.98831e-07
4.72659e-06
-2.75313e-07
4.73374e-06
1.7028e-07
4.7572e-06
3.3394e-07
4.76946e-06
2.2863e-07
4.76174e-06
-8.34071e-08
4.75447e-06
-9.18716e-08
4.73726e-06
-1.00242e-07
4.72646e-06
-1.38262e-07
4.72613e-06
2.30667e-08
4.71406e-06
7.56771e-08
4.71462e-06
1.10129e-07
4.72452e-06
2.14468e-07
4.72697e-06
2.44099e-07
4.73282e-06
2.32857e-07
4.74296e-06
2.32985e-07
2.25029e-07
4.74883e-06
4.97136e-06
-6.09262e-09
4.97345e-06
2.07271e-07
4.99618e-06
1.33533e-07
4.96301e-06
-3.65657e-07
4.95316e-06
-2.65464e-07
4.96178e-06
1.61652e-07
4.98285e-06
3.12876e-07
4.99622e-06
2.15262e-07
4.9884e-06
-7.55951e-08
4.98122e-06
-8.46862e-08
4.96451e-06
-8.35305e-08
4.95284e-06
-1.26598e-07
4.95296e-06
2.29511e-08
4.94166e-06
8.69742e-08
4.9407e-06
1.11096e-07
4.95107e-06
2.04097e-07
4.95442e-06
2.4075e-07
4.95903e-06
2.28242e-07
4.96845e-06
2.23569e-07
2.17739e-07
4.97574e-06
5.20922e-06
-9.00023e-09
5.21075e-06
2.05744e-07
5.23296e-06
1.11322e-07
5.2014e-06
-3.34099e-07
5.1903e-06
-2.5436e-07
5.20084e-06
1.51114e-07
5.21954e-06
2.94176e-07
5.23337e-06
2.01433e-07
5.226e-06
-6.8229e-08
5.21875e-06
-7.74378e-08
5.20261e-06
-6.73845e-08
5.19012e-06
-1.14112e-07
5.19053e-06
2.25394e-08
5.18021e-06
9.73008e-08
5.17777e-06
1.13527e-07
5.18827e-06
1.93598e-07
5.19273e-06
2.36294e-07
5.19645e-06
2.24516e-07
5.20485e-06
2.15176e-07
2.09611e-07
5.21298e-06
5.45835e-06
-1.21564e-08
5.45958e-06
2.04513e-07
5.48062e-06
9.02823e-08
5.45138e-06
-3.04867e-07
5.43855e-06
-2.41522e-07
5.45122e-06
1.38436e-07
5.46806e-06
2.77337e-07
5.48154e-06
1.87955e-07
5.47495e-06
-6.1637e-08
5.46765e-06
-7.01345e-08
5.45205e-06
-5.17932e-08
5.4388e-06
-1.00857e-07
5.43932e-06
2.20142e-08
5.43019e-06
1.06432e-07
5.42635e-06
1.17373e-07
5.43665e-06
1.83293e-07
5.44241e-06
2.30536e-07
5.44551e-06
2.21412e-07
5.45283e-06
2.0786e-07
2.01282e-07
5.46116e-06
5.71925e-06
-1.54476e-08
5.7205e-06
2.03264e-07
5.73953e-06
7.1249e-08
5.71341e-06
-2.78748e-07
5.6986e-06
-2.26708e-07
5.71318e-06
1.23851e-07
5.72909e-06
2.6143e-07
5.74152e-06
1.75523e-07
5.7357e-06
-5.5817e-08
5.72846e-06
-6.28883e-08
5.71335e-06
-3.66896e-08
5.69937e-06
-8.68712e-08
5.69982e-06
2.15616e-08
5.69207e-06
1.1418e-07
5.68701e-06
1.22432e-07
5.69672e-06
1.73586e-07
5.70394e-06
2.23314e-07
5.70673e-06
2.18624e-07
5.71296e-06
2.01625e-07
1.932e-07
5.72105e-06
5.99249e-06
-1.87453e-08
5.99411e-06
2.01646e-07
6.01001e-06
5.53498e-08
5.98792e-06
-2.56665e-07
5.97138e-06
-2.10161e-07
5.98704e-06
1.08192e-07
6.00303e-06
2.45439e-07
6.01413e-06
1.6442e-07
6.00877e-06
-5.04571e-08
6.00167e-06
-5.57828e-08
5.98695e-06
-2.19792e-08
5.97228e-06
-7.21966e-08
5.97246e-06
2.13789e-08
5.96633e-06
1.20308e-07
5.96039e-06
1.28378e-07
5.96908e-06
1.64894e-07
5.97782e-06
2.14577e-07
5.98066e-06
2.15778e-07
5.98581e-06
1.96483e-07
1.85606e-07
5.9934e-06
6.27866e-06
-2.19165e-08
6.281e-06
1.99308e-07
6.29295e-06
4.33923e-08
6.27527e-06
-2.38976e-07
6.25778e-06
-1.92679e-07
6.27336e-06
9.26184e-08
6.29007e-06
2.2873e-07
6.29979e-06
1.547e-07
6.29435e-06
-4.5017e-08
6.28734e-06
-4.87756e-08
6.27316e-06
-7.79605e-09
6.25788e-06
-5.6922e-08
6.2578e-06
2.14653e-08
6.25348e-06
1.24623e-07
6.24712e-06
1.34742e-07
6.25442e-06
1.57594e-07
6.2645e-06
2.04491e-07
6.26789e-06
2.12394e-07
6.27195e-06
1.92417e-07
1.78647e-07
6.27891e-06
6.57839e-06
-2.48334e-08
6.58178e-06
1.9591e-07
6.59027e-06
3.49116e-08
6.57585e-06
-2.24557e-07
6.55849e-06
-1.75324e-07
6.57291e-06
7.82016e-08
6.5901e-06
2.11542e-07
6.59802e-06
1.4678e-07
6.59197e-06
-3.89672e-08
6.58538e-06
-4.21925e-08
6.5723e-06
5.28957e-09
6.55671e-06
-4.13373e-08
6.55639e-06
2.17858e-08
6.55413e-06
1.26886e-07
6.54783e-06
1.41038e-07
6.55348e-06
1.51946e-07
6.5645e-06
1.93473e-07
6.56892e-06
2.0797e-07
6.57208e-06
1.89261e-07
1.72514e-07
6.57821e-06
6.89234e-06
-2.73859e-08
6.89712e-06
1.91128e-07
6.9027e-06
2.93331e-08
6.89034e-06
-2.12195e-07
6.87388e-06
-1.58864e-07
6.88667e-06
6.54167e-08
6.90356e-06
1.94646e-07
6.90957e-06
1.40771e-07
6.90308e-06
-3.24729e-08
6.89712e-06
-3.62348e-08
6.88541e-06
1.69996e-08
6.86973e-06
-2.56584e-08
6.86899e-06
2.25246e-08
6.86887e-06
1.27011e-07
6.86317e-06
1.46738e-07
6.86702e-06
1.48095e-07
6.8784e-06
1.82092e-07
6.88423e-06
2.0214e-07
6.88685e-06
1.86643e-07
1.6739e-07
6.89197e-06
7.22122e-06
-2.94718e-08
7.22784e-06
1.84506e-07
7.23074e-06
2.64387e-08
7.21959e-06
-2.01051e-07
7.20445e-06
-1.4372e-07
7.21551e-06
5.43522e-08
7.23228e-06
1.77882e-07
7.23703e-06
1.36022e-07
7.22958e-06
-2.50292e-08
7.22398e-06
-3.06285e-08
7.21359e-06
2.73819e-08
7.19799e-06
-1.00549e-08
7.19648e-06
2.40374e-08
7.19832e-06
1.25168e-07
7.19371e-06
1.51345e-07
7.19586e-06
1.45949e-07
7.20688e-06
1.71068e-07
7.21427e-06
1.94751e-07
7.21687e-06
1.84047e-07
1.63339e-07
7.22092e-06
7.56576e-06
-3.10055e-08
7.57487e-06
1.75397e-07
7.57508e-06
2.62289e-08
7.56457e-06
-1.90539e-07
7.55085e-06
-1.30006e-07
7.56063e-06
4.45693e-08
7.57716e-06
1.61354e-07
7.58116e-06
1.32024e-07
7.57241e-06
-1.62754e-08
7.5665e-06
-2.47188e-08
7.55762e-06
3.62586e-08
7.54239e-06
5.17725e-09
7.53977e-06
2.66576e-08
7.54321e-06
1.21724e-07
7.54009e-06
1.5447e-07
7.54079e-06
1.4525e-07
7.55085e-06
1.61005e-07
7.55962e-06
1.85984e-07
7.56274e-06
1.80926e-07
1.60213e-07
7.56586e-06
7.92674e-06
-3.19374e-08
7.93843e-06
1.63707e-07
7.93682e-06
2.78467e-08
7.92619e-06
-1.79909e-07
7.9144e-06
-1.18223e-07
7.92308e-06
3.58919e-08
7.94046e-06
1.43974e-07
7.94383e-06
1.28649e-07
7.93216e-06
-4.59945e-09
7.92536e-06
-1.79218e-08
7.91819e-06
4.34314e-08
7.90374e-06
1.96261e-08
7.89986e-06
3.05358e-08
7.90432e-06
1.17266e-07
7.90292e-06
1.55866e-07
7.90259e-06
1.45581e-07
7.91122e-06
1.52374e-07
7.92095e-06
1.76263e-07
7.92503e-06
1.76842e-07
1.57647e-07
7.92759e-06
8.30499e-06
-3.22434e-08
8.31873e-06
1.49966e-07
8.317e-06
2.95724e-08
8.30611e-06
-1.69014e-07
8.29607e-06
-1.08188e-07
8.30291e-06
2.90494e-08
8.32091e-06
1.25976e-07
8.32237e-06
1.27196e-07
8.30881e-06
8.95406e-09
8.30162e-06
-1.07294e-08
8.29607e-06
4.89778e-08
8.28268e-06
3.30159e-08
8.27766e-06
3.55591e-08
8.28248e-06
1.12445e-07
8.28291e-06
1.55435e-07
8.28206e-06
1.4643e-07
8.28898e-06
1.45456e-07
8.29913e-06
1.66115e-07
8.30438e-06
1.7159e-07
1.55184e-07
8.30684e-06
8.70133e-06
-3.19138e-08
8.71682e-06
1.34481e-07
8.71487e-06
3.15175e-08
8.70466e-06
-1.58797e-07
8.69505e-06
-9.85843e-08
8.69477e-06
2.93361e-08
8.70632e-06
1.14426e-07
8.71252e-06
1.20992e-07
8.70312e-06
1.83504e-08
8.6964e-06
-4.00389e-09
8.69201e-06
5.33613e-08
8.67988e-06
4.51461e-08
8.67393e-06
4.15126e-08
8.67864e-06
1.07738e-07
8.68076e-06
1.53311e-07
8.67996e-06
1.47235e-07
8.68512e-06
1.40295e-07
8.69512e-06
1.56111e-07
8.70156e-06
1.65155e-07
1.5242e-07
8.70432e-06
9.11669e-06
-3.0981e-08
9.13343e-06
1.17733e-07
9.13084e-06
3.41169e-08
9.11712e-06
-1.45081e-07
9.10531e-06
-8.67738e-08
9.10482e-06
2.98266e-08
9.11721e-06
1.02038e-07
9.12548e-06
1.12716e-07
9.11732e-06
2.65127e-08
9.11037e-06
2.94576e-09
9.10685e-06
5.68767e-08
9.09616e-06
5.58431e-08
9.08956e-06
4.81149e-08
9.09379e-06
1.03498e-07
9.09734e-06
1.49765e-07
9.09706e-06
1.47514e-07
9.10066e-06
1.367e-07
9.10996e-06
1.46806e-07
9.11741e-06
1.57711e-07
1.49072e-07
9.12075e-06
9.55199e-06
-2.95066e-08
9.56892e-06
1.00797e-07
9.56635e-06
3.66872e-08
9.55121e-06
-1.2994e-07
9.54233e-06
-7.78938e-08
9.54122e-06
3.094e-08
9.55077e-06
9.24832e-08
9.55874e-06
1.04746e-07
9.55171e-06
3.35447e-08
9.54442e-06
1.02354e-08
9.54154e-06
5.97539e-08
9.53235e-06
6.50376e-08
9.52544e-06
5.50219e-08
9.52898e-06
9.99545e-08
9.53358e-06
1.45171e-07
9.53414e-06
1.4695e-07
9.53654e-06
1.34304e-07
9.54469e-06
1.38657e-07
9.5528e-06
1.49601e-07
1.44936e-07
9.55693e-06
1.00082e-05
-2.75668e-08
1.00246e-05
8.43822e-08
1.00231e-05
3.81544e-08
1.00077e-05
-1.1454e-07
9.99993e-06
-7.0085e-08
9.99863e-06
3.22448e-08
1.00056e-05
8.54799e-08
1.00129e-05
9.75084e-08
1.0007e-05
3.94582e-08
9.99957e-06
1.76185e-08
9.99707e-06
6.22536e-08
9.98937e-06
7.27428e-08
9.98244e-06
6.1948e-08
9.9852e-06
9.71992e-08
9.99046e-06
1.39905e-07
9.99201e-06
1.45399e-07
9.99371e-06
1.32607e-07
1.00005e-05
1.31903e-07
1.00088e-05
1.41301e-07
1.39921e-07
1.00138e-05
1.04863e-05
-2.52738e-08
1.05021e-05
6.86607e-08
1.05018e-05
3.83845e-08
1.04863e-05
-9.89919e-08
1.0479e-05
-6.2825e-08
1.04779e-05
3.33567e-08
1.04828e-05
8.05673e-08
1.04889e-05
9.1481e-08
1.04839e-05
4.43887e-08
1.04768e-05
2.47841e-08
1.04745e-05
6.45111e-08
1.04682e-05
7.90343e-08
1.04615e-05
6.8621e-08
1.04635e-05
9.52496e-08
1.04691e-05
1.34308e-07
1.04716e-05
1.42863e-07
1.04731e-05
1.31148e-07
1.04785e-05
1.26531e-07
1.04864e-05
1.33317e-07
1.34114e-07
1.04922e-05
1.09875e-05
-2.27684e-08
1.10022e-05
5.39991e-08
1.10034e-05
3.72057e-08
1.09875e-05
-8.31632e-08
1.09805e-05
-5.57811e-08
1.09799e-05
3.39391e-08
1.09833e-05
7.71753e-08
1.09879e-05
8.68406e-08
1.09837e-05
4.86018e-08
1.0977e-05
3.14985e-08
1.0975e-05
6.65585e-08
1.09699e-05
8.4058e-08
1.09637e-05
7.48651e-08
1.09649e-05
9.40383e-08
1.09705e-05
1.28688e-07
1.0974e-05
1.39431e-07
1.09756e-05
1.2955e-07
1.09798e-05
1.22305e-07
1.09871e-05
1.26041e-07
1.27762e-07
1.09934e-05
1.15128e-05
-2.01992e-08
1.1526e-05
4.07953e-08
1.15285e-05
3.46932e-08
1.15123e-05
-6.69571e-08
1.15051e-05
-4.85776e-08
1.15055e-05
3.3534e-08
1.15081e-05
7.46297e-08
1.15113e-05
8.35534e-08
1.15075e-05
5.24362e-08
1.15013e-05
3.77243e-08
1.14994e-05
6.83961e-08
1.14956e-05
8.78793e-08
1.149e-05
8.05103e-08
1.14906e-05
9.3459e-08
1.1496e-05
1.23249e-07
1.15001e-05
1.35282e-07
1.15021e-05
1.27577e-07
1.15055e-05
1.18892e-07
1.15119e-05
1.19695e-07
1.21245e-07
1.15184e-05
1.20633e-05
-1.76946e-08
1.20746e-05
2.95076e-08
1.2078e-05
3.1298e-08
1.20618e-05
-5.07824e-08
1.20543e-05
-4.10046e-08
1.20558e-05
3.19963e-08
1.20582e-05
7.22493e-08
1.20602e-05
8.14914e-08
1.20565e-05
5.6167e-08
1.20507e-05
4.34863e-08
1.20491e-05
7.00095e-08
1.20464e-05
9.05684e-08
1.20415e-05
8.54016e-08
1.20416e-05
9.34014e-08
1.20467e-05
1.18155e-07
1.20513e-05
1.30657e-07
1.20538e-05
1.25122e-07
1.20567e-05
1.15935e-07
1.20621e-05
1.14285e-07
1.14927e-07
1.20685e-05
1.26403e-05
-1.53566e-08
1.2649e-05
2.07233e-08
1.26526e-05
2.77592e-08
1.26377e-05
-3.59462e-08
1.26297e-05
-3.29627e-08
1.26319e-05
2.97774e-08
1.26346e-05
6.95237e-08
1.26358e-05
8.03366e-08
1.2632e-05
5.99177e-08
1.26267e-05
4.88782e-08
1.26252e-05
7.144e-08
1.26236e-05
9.22431e-08
1.26195e-05
8.94406e-08
1.26192e-05
9.37207e-08
1.26238e-05
1.13502e-07
1.26288e-05
1.25735e-07
1.26317e-05
1.22186e-07
1.26345e-05
1.13128e-07
1.26391e-05
1.09652e-07
1.09083e-07
1.2645e-05
1.32448e-05
-1.32529e-08
1.32506e-05
1.49878e-08
1.32545e-05
2.37782e-08
1.32418e-05
-2.32248e-08
1.32332e-05
-2.43022e-08
1.32353e-05
2.76637e-08
1.32385e-05
6.62949e-08
1.32393e-05
7.95884e-08
1.32355e-05
6.37195e-08
1.32303e-05
5.40366e-08
1.3229e-05
7.27243e-08
1.32282e-05
9.30548e-08
1.32251e-05
9.25411e-08
1.32246e-05
9.42169e-08
1.32287e-05
1.09366e-07
1.32338e-05
1.20669e-07
1.32372e-05
1.18809e-07
1.324e-05
1.10316e-07
1.32441e-05
1.05563e-07
1.03866e-07
1.32493e-05
1.38784e-05
-1.14559e-08
1.3882e-05
1.13728e-08
1.3886e-05
1.98097e-08
1.38753e-05
-1.26028e-08
1.38661e-05
-1.51194e-08
1.38674e-05
2.64295e-08
1.3871e-05
6.27191e-08
1.38718e-05
7.87571e-08
1.38681e-05
6.74543e-08
1.3863e-05
5.9043e-08
1.38618e-05
7.39546e-08
1.38617e-05
9.31542e-08
1.38596e-05
9.46649e-08
1.38591e-05
9.47053e-08
1.38627e-05
1.0575e-07
1.38677e-05
1.15644e-07
1.38715e-05
1.15047e-07
1.38744e-05
1.07447e-07
1.38781e-05
1.01797e-07
9.92322e-08
1.38828e-05
1.45422e-05
-9.96159e-09
1.45439e-05
9.63964e-09
1.45476e-05
1.60737e-08
1.45392e-05
-4.20561e-09
1.453e-05
-5.86788e-09
1.45298e-05
2.65797e-08
1.45334e-05
5.9162e-08
1.45346e-05
7.75744e-08
1.45312e-05
7.08802e-08
1.45264e-05
6.38291e-08
1.45251e-05
7.52686e-08
1.45255e-05
9.27243e-08
1.45243e-05
9.58313e-08
1.4524e-05
9.50348e-08
1.45271e-05
1.02591e-07
1.4532e-05
1.10806e-07
1.45361e-05
1.10982e-07
1.4539e-05
1.04458e-07
1.45426e-05
9.82343e-08
9.49981e-08
1.45468e-05
1.52377e-05
-8.73271e-09
1.52383e-05
8.98882e-09
1.52412e-05
1.31656e-08
1.52348e-05
2.23294e-09
1.5226e-05
2.95382e-09
1.52243e-05
2.81922e-08
1.52274e-05
5.61106e-08
1.5229e-05
7.59996e-08
1.52261e-05
7.3721e-08
1.52217e-05
6.82742e-08
1.52202e-05
7.67338e-08
1.5221e-05
9.19643e-08
1.52207e-05
9.61298e-08
1.52206e-05
9.50754e-08
1.52234e-05
9.9792e-08
1.5228e-05
1.06208e-07
1.52323e-05
1.06729e-07
1.52355e-05
1.01269e-07
1.52389e-05
9.4838e-08
9.10063e-08
1.52429e-05
1.59663e-05
-7.69154e-09
1.59663e-05
8.96768e-09
1.59681e-05
1.13503e-08
1.59633e-05
7.07569e-09
1.59553e-05
1.09077e-08
1.59525e-05
3.10146e-08
1.59546e-05
5.4027e-08
1.59564e-05
7.41493e-08
1.59544e-05
7.57674e-08
1.59504e-05
7.22891e-08
1.59488e-05
7.82683e-08
1.59498e-05
9.10503e-08
1.59502e-05
9.57178e-08
1.59505e-05
9.47053e-08
1.59531e-05
9.72637e-08
1.59574e-05
1.01875e-07
1.59617e-05
1.02399e-07
1.59651e-05
9.78684e-08
1.59684e-05
9.15583e-08
8.71971e-08
1.59722e-05
1.67297e-05
-6.74584e-09
1.67291e-05
9.49285e-09
1.67299e-05
1.0604e-08
1.67263e-05
1.06568e-08
1.67195e-05
1.76742e-08
1.67159e-05
3.4647e-08
1.67168e-05
5.31418e-08
1.67186e-05
7.22825e-08
1.67174e-05
7.70013e-08
1.6714e-05
7.56877e-08
1.67125e-05
7.97803e-08
1.67135e-05
9.00874e-08
1.67144e-05
9.47544e-08
1.67152e-05
9.39014e-08
1.67176e-05
9.48708e-08
1.67217e-05
9.78415e-08
1.6726e-05
9.80643e-08
1.67296e-05
9.42913e-08
1.67328e-05
8.8316e-08
8.35525e-08
1.67365e-05
1.75294e-05
-5.82542e-09
1.75288e-05
1.0141e-08
1.75284e-05
1.09864e-08
1.75255e-05
1.35518e-08
1.752e-05
2.3159e-08
1.75161e-05
3.8625e-08
1.75158e-05
5.33855e-08
1.75173e-05
7.07506e-08
1.75168e-05
7.75483e-08
1.75142e-05
7.82694e-08
1.75128e-05
8.12031e-08
1.75137e-05
8.91347e-08
1.75151e-05
9.3369e-08
1.75163e-05
9.27229e-08
1.75187e-05
9.24793e-08
1.75225e-05
9.40683e-08
1.75267e-05
9.37969e-08
1.75305e-05
9.05474e-08
1.75337e-05
8.50577e-08
8.00414e-08
1.75372e-05
1.83674e-05
-4.87596e-09
1.83667e-05
1.08745e-08
1.83654e-05
1.2212e-08
1.83628e-05
1.62043e-08
1.83585e-05
2.7492e-08
1.83546e-05
4.25034e-08
1.83534e-05
5.45348e-08
1.83544e-05
6.9816e-08
1.83543e-05
7.76147e-08
1.83526e-05
7.99991e-08
1.83514e-05
8.23484e-08
1.83523e-05
8.82377e-08
1.8354e-05
9.16773e-08
1.83555e-05
9.11951e-08
1.83579e-05
9.0074e-08
1.83616e-05
9.04571e-08
1.83657e-05
8.96729e-08
1.83696e-05
8.66634e-08
1.83729e-05
8.17325e-08
7.66345e-08
1.83763e-05
1.92454e-05
-3.87935e-09
1.92446e-05
1.1667e-08
1.92428e-05
1.40119e-08
1.92401e-05
1.89338e-08
1.92366e-05
3.0939e-08
1.92332e-05
4.59744e-08
1.92314e-05