/*--------------------------------*- C++ -*----------------------------------*\
| =========                 |                                                 |
| \\      /  F ield         | OpenFOAM: The Open Source CFD Toolbox           |
|  \\    /   O peration     | Version:  2506                                  |
|   \\  /    A nd           | Website:  www.openfoam.com                      |
|    \\/     M anipulation  |                                                 |
\*---------------------------------------------------------------------------*/
FoamFile
{
    version     2.0;
    format      ascii;
    arch        "LSB;label=32;scalar=64";
    class       volScalarField;
    location    "1.65";
    object      p;
}
// * * * * * * * * * * * * * * * * * * * * * * * * * * * * * * * * * * * * * //

dimensions      [0 2 -2 0 0 0 0];

internalField   nonuniform List<scalar> 
9600
(
-7.42503e-11
0.00184586
0.00178014
0.00104586
0.000669495
0.00280611
0.00232657
0.00119695
0.00243604
0.00246023
0.00197024
0.00253508
0.00314778
0.00314524
0.00330153
0.00405717
0.00451575
0.00557362
0.00639908
0.0091799
1.40318e-06
0.00184292
0.00177947
0.0010655
0.000676361
0.00279127
0.00232211
0.00119742
0.00243304
0.00246372
0.00197653
0.0025294
0.00315816
0.00312993
0.00331115
0.00400883
0.00452232
0.00553067
0.00641439
0.00886011
3.29202e-06
0.00183974
0.00178066
0.00107969
0.0006818
0.00276866
0.00231694
0.0012034
0.00243011
0.00246807
0.00198197
0.00251886
0.00316755
0.00310281
0.00332175
0.00395313
0.00453106
0.00548256
0.00641192
0.0084763
5.94267e-06
0.00183871
0.00178205
0.00109175
0.000687456
0.0027437
0.00231131
0.00121725
0.00242568
0.0024713
0.00198676
0.00250408
0.00317748
0.00306551
0.00333221
0.00389626
0.00453786
0.00544152
0.00638031
0.00812159
9.99722e-06
0.00183963
0.00178293
0.00110262
0.000695663
0.00271697
0.00230461
0.00123729
0.00241916
0.00247385
0.00199152
0.00248702
0.00318903
0.00302125
0.00334779
0.00383776
0.00454562
0.00540038
0.00632322
0.00780797
1.56252e-05
0.00184183
0.00178297
0.0011126
0.000707245
0.00268887
0.00229737
0.001261
0.00241139
0.00247591
0.00199624
0.00246947
0.00320182
0.00297564
0.00336748
0.00377828
0.00455382
0.00535519
0.00624637
0.00752371
2.26482e-05
0.00184483
0.00178212
0.00112203
0.000722146
0.00266069
0.00229038
0.00128629
0.00240331
0.00247734
0.00200106
0.00245227
0.0032156
0.00293144
0.00338828
0.00372072
0.00455747
0.0053086
0.00615067
0.00725694
3.07604e-05
0.00184828
0.00178052
0.00113124
0.00074007
0.00263357
0.00228397
0.00131177
0.0023956
0.00247807
0.00200609
0.00243559
0.00322996
0.00288959
0.00340945
0.00366637
0.00455309
0.00526371
0.00603355
0.00700219
3.96746e-05
0.00185201
0.00177853
0.00114049
0.000760566
0.00260788
0.00227817
0.00133671
0.00238867
0.00247809
0.00201129
0.00241936
0.00324447
0.00285092
0.00343007
0.0036159
0.0045396
0.00522127
0.00589418
0.0067567
4.92049e-05
0.00185593
0.00177648
0.00114991
0.000783075
0.00258339
0.00227289
0.00136082
0.00238271
0.00247737
0.00201657
0.00240347
0.00325875
0.00281595
0.00344844
0.00357082
0.00451586
0.00518094
0.00573438
0.00651689
5.92743e-05
0.00185998
0.0017746
0.00115951
0.000807074
0.00255963
0.00226803
0.00138396
0.00237784
0.00247594
0.00202178
0.0023878
0.00327247
0.00278487
0.00346288
0.00353233
0.00448012
0.00514239
0.0055576
0.00627782
6.98774e-05
0.00186408
0.00177299
0.00116931
0.000832145
0.00253608
0.00226353
0.00140609
0.00237411
0.00247382
0.00202676
0.00237228
0.0032852
0.00275779
0.00347176
0.003501
0.00443089
0.00510456
0.00536841
0.00603447
8.10433e-05
0.00186813
0.00177175
0.0011793
0.000857999
0.00251233
0.0022594
0.00142717
0.00237153
0.0024711
0.0020313
0.00235703
0.00329647
0.00273478
0.00347343
0.00347706
0.00436769
0.00506498
0.005172
0.00578322
9.28149e-05
0.00187206
0.00177092
0.00118947
0.000884466
0.00248815
0.00225569
0.00144716
0.00237007
0.00246792
0.00203507
0.0023423
0.00330569
0.00271589
0.00346656
0.00346019
0.00429101
0.00502006
0.00497412
0.00552251
0.000105243
0.00187576
0.0017706
0.00119978
0.000911475
0.00246341
0.00225246
0.00146603
0.00236966
0.00246453
0.00203767
0.00232839
0.00331228
0.00270121
0.00345025
0.00344934
0.00420234
0.00496558
0.00478022
0.00525264
0.000118384
0.00187917
0.00177084
0.00121021
0.000939017
0.00243804
0.00224978
0.00148377
0.00237011
0.00246124
0.00203874
0.0023156
0.00331572
0.00269078
0.00342406
0.00344275
0.00410412
0.00489762
0.00459428
0.00497536
0.000132306
0.0018822
0.00177172
0.00122071
0.00096711
0.002412
0.00224771
0.0015004
0.00237118
0.00245841
0.00203783
0.00230424
0.00331558
0.00268441
0.00338818
0.0034381
0.00399914
0.00481333
0.00441853
0.0046935
0.000147084
0.00188475
0.00177331
0.00123125
0.000995773
0.00238529
0.00224626
0.00151597
0.0023725
0.00245653
0.00203448
0.00229443
0.00331178
0.00268162
0.00334336
0.00343264
0.00388981
0.00471127
0.00425362
0.00441036
0.000162801
0.00188673
0.00177568
0.00124179
0.00102502
0.00235794
0.00224542
0.00153061
0.00237365
0.00245607
0.00202842
0.00228607
0.00330434
0.00268162
0.00329085
0.00342375
0.00377784
0.0045916
0.00409903
0.0041294
0.000179542
0.00188802
0.00177889
0.00125231
0.00105486
0.00232999
0.00224509
0.00154454
0.00237416
0.00245738
0.00201955
0.00227889
0.00329336
0.00268314
0.00323223
0.00340952
0.00366447
0.00445572
0.00395347
0.00385435
0.000197404
0.00188851
0.001783
0.00126279
0.00108523
0.00230152
0.00224517
0.00155805
0.00237355
0.00246071
0.00200793
0.00227235
0.00327945
0.00268478
0.00316849
0.00338857
0.00355054
0.00430511
0.0038154
0.00358933
0.000216484
0.00188808
0.00178804
0.00127323
0.00111608
0.0022727
0.00224546
0.00157147
0.00237141
0.00246618
0.00199384
0.00226569
0.00326353
0.00268527
0.00309986
0.00336018
0.00343667
0.00414071
0.00368307
0.00333869
0.000236879
0.00188662
0.00179404
0.00128367
0.0011473
0.00224373
0.00224573
0.00158513
0.00236732
0.00247379
0.0019778
0.00225794
0.0032463
0.00268372
0.00302642
0.00332406
0.0033235
0.00396362
0.00355461
0.00310605
0.000258687
0.00188403
0.00180099
0.00129415
0.00117874
0.00221488
0.00224571
0.00159929
0.00236102
0.00248332
0.00196057
0.00224792
0.00322829
0.00267989
0.00294788
0.00327965
0.00321199
0.00377577
0.00342778
0.00289341
0.000282005
0.00188024
0.00180884
0.00130479
0.00121025
0.00218647
0.00224514
0.00161416
0.00235245
0.00249425
0.00194293
0.0022347
0.0032097
0.00267366
0.00286382
0.00322637
0.00310329
0.00357931
0.00330022
0.00270207
0.000306922
0.00187522
0.00181748
0.0013157
0.00124164
0.00215877
0.00224379
0.00162989
0.00234171
0.00250598
0.00192556
0.00221752
0.00319024
0.00266505
0.00277407
0.00316383
0.00299847
0.00337617
0.0031697
0.00253403
0.000333518
0.00186896
0.00182676
0.00132701
0.00127272
0.00213203
0.00224154
0.00164643
0.00232891
0.00251797
0.00190917
0.00219563
0.00316934
0.00265455
0.00267833
0.00309133
0.00289896
0.00316876
0.00303324
0.00239149
0.000361864
0.00186153
0.00183653
0.00133882
0.00130335
0.00210652
0.00223838
0.00166366
0.00231407
0.00252974
0.0018944
0.00216831
0.00314618
0.0026426
0.00257625
0.00300798
0.00280677
0.00296084
0.00288594
0.00227412
0.000392001
0.00185301
0.0018466
0.00135122
0.00133341
0.00208242
0.00223437
0.00168157
0.00229721
0.00254067
0.00188184
0.00213512
0.00311952
0.00262773
0.00246827
0.00291256
0.00272281
0.00275812
0.00272275
0.00217629
0.000423948
0.00184359
0.00185677
0.00136427
0.00136289
0.00205977
0.00222952
0.00170016
0.00227835
0.0025502
0.00187194
0.00209572
0.00308792
0.00261226
0.00235577
0.00280387
0.00264589
0.00256747
0.00254228
0.00208689
0.000457713
0.00183349
0.00186687
0.0013779
0.00139186
0.00203857
0.00222369
0.00171956
0.00225746
0.0025576
0.00186509
0.00204994
0.00304976
0.00259897
0.00224091
0.00268176
0.00257318
0.00239432
0.00234853
0.00199263
0.000493275
0.00182292
0.00187678
0.00139196
0.00142049
0.00201892
0.00221672
0.00174002
0.00223459
0.00256164
0.00186146
0.00199823
0.00300295
0.00258659
0.00212671
0.00254684
0.00250098
0.00224092
0.0021494
0.00188353
0.000530584
0.00181209
0.00188654
0.00140615
0.00144892
0.00200113
0.00220851
0.00176182
0.0022098
0.00256075
0.00186084
0.00194128
0.00294546
0.0025747
0.00201671
0.00240033
0.0024257
0.0021068
0.00195266
0.00175625
0.000569579
0.00180124
0.00189629
0.00142001
0.00147708
0.00198556
0.0021988
0.0017852
0.00218338
0.00255339
0.0018626
0.00188001
0.00287616
0.0025627
0.00191454
0.00224416
0.00234458
0.0019906
0.00176352
0.00161231
0.00061024
0.00179055
0.00190626
0.00143322
0.0015047
0.00197264
0.00218697
0.00181013
0.0021565
0.00253796
0.00186543
0.00181603
0.00279162
0.00254906
0.00182321
0.00208071
0.00225525
0.00189106
0.00158574
0.0014549
0.000652575
0.00178006
0.00191684
0.00144557
0.00153104
0.00196338
0.00217259
0.00183572
0.00213079
0.00251332
0.00186744
0.00175169
0.00269155
0.00253159
0.00174422
0.0019127
0.0021552
0.00180669
0.00142339
0.00128783
0.000696616
0.00176972
0.00192852
0.00145704
0.00155492
0.00195887
0.00215595
0.00186013
0.00210734
0.00247932
0.00186624
0.00168913
0.00258602
0.00250857
0.001678
0.00174315
0.00204156
0.00173432
0.00128095
0.00111632
0.000742453
0.00175939
0.00194166
0.00146801
0.00157478
0.00195938
0.00213774
0.00188131
0.00208671
0.00243727
0.00186006
0.00162924
0.00247637
0.00247867
0.00162424
0.00157538
0.00191198
0.00166884
0.00116188
0.000947615
0.000790161
0.00174902
0.00195645
0.00147937
0.00158881
0.00196455
0.00211903
0.00189693
0.00206884
0.00239024
0.00184834
0.00157207
0.00236288
0.0024407
0.00158172
0.00141308
0.00176583
0.00160414
0.0010671
0.000789745
0.000839826
0.00173858
0.00197282
0.0014925
0.00159567
0.00197307
0.00210151
0.0019047
0.00205269
0.00234179
0.00183139
0.00151726
0.00224668
0.0023938
0.00154891
0.00126006
0.00160443
0.00153407
0.000994836
0.0006495
0.000891614
0.0017278
0.00199038
0.00150907
0.00159468
0.00198232
0.00208679
0.00190363
0.0020364
0.002295
0.00181099
0.00146366
0.00212785
0.00233746
0.00152464
0.0011197
0.00143034
0.0014531
0.000941425
0.000532184
0.000945697
0.00171678
0.00200844
0.00153079
0.00158585
0.00198891
0.00207575
0.00189412
0.00201735
0.0022517
0.00179004
0.00141087
0.0020054
0.00227085
0.00150785
0.000995687
0.00124741
0.00135647
0.000901432
0.000441847
0.00100222
0.00170577
0.00202601
0.00155901
0.00157035
0.00198928
0.00206822
0.00187743
0.00199283
0.00221235
0.00177182
0.00135985
0.00187866
0.00219226
0.00149597
0.000891933
0.00106132
0.00124069
0.000867183
0.000380452
0.00106123
0.00169509
0.0020418
0.00159491
0.00155047
0.00197978
0.00206314
0.00185555
0.00196098
0.00217657
0.00175869
0.00131274
0.00174936
0.00209965
0.00148428
0.000810467
0.000879274
0.0011051
0.000829827
0.000345924
0.00112269
0.00168532
0.0020541
0.00163901
0.00152954
0.00195712
0.00205834
0.00183172
0.00192133
0.00214204
0.00175157
0.00127207
0.00161943
0.00199249
0.00146784
0.000750112
0.000708689
0.000952946
0.000781518
0.00033083
0.0011864
0.00167722
0.0020613
0.00169058
0.00151114
0.00191934
0.00205105
0.0018113
0.00187448
0.00210378
0.00174959
0.00124032
0.00149081
0.00187181
0.00144255
0.000707526
0.000555373
0.000789849
0.000717373
0.000324767
0.00125207
0.00167174
0.00206201
0.00174729
0.00149837
0.0018656
0.00203893
0.00179905
0.00182254
0.00205603
0.00175116
0.00121833
0.00136817
0.00173985
0.00140486
0.000678767
0.000422939
0.00062177
0.000635791
0.000318571
0.00131925
0.00166988
0.00205539
0.00180553
0.00149407
0.00179965
0.00201847
0.00179585
0.00177043
0.00199668
0.00174728
0.00120922
0.00125783
0.00160067
0.00135248
0.000659071
0.000313542
0.000454299
0.000536963
0.000306342
0.00138734
0.00167257
0.00204135
0.00186055
0.00150115
0.00172767
0.00198506
0.0017989
0.00172512
0.00192632
0.00173292
0.00120828
0.00116298
0.00146016
0.00128587
0.000642681
0.000227569
0.000293626
0.000421991
0.000284684
0.00145559
0.00168062
0.00202062
0.00190776
0.00152076
0.00165544
0.00193637
0.00180269
0.00169088
0.00185098
0.00170561
0.00120918
0.00108247
0.00132317
0.00120774
0.000624769
0.000163256
0.000147012
0.000293437
0.000250243
0.00152312
0.00169463
0.00199483
0.00194364
0.00155195
0.00159167
0.00187261
0.00180045
0.00166831
0.00177809
0.00166569
0.00120659
0.00101522
0.00119228
0.00112093
0.000603344
0.000117288
2.09875e-05
0.000156664
0.000198576
0.00158896
0.00171489
0.00196647
0.00196574
0.00159145
0.00154053
0.00179629
0.00178591
0.00165523
0.00171347
0.00161547
0.00119662
0.000958613
0.00106936
0.00102711
0.000576923
8.54234e-05
-8.08625e-05
2.09006e-05
0.000127424
0.00165219
0.00174125
0.00193848
0.00197288
0.0016337
0.00150467
0.00171335
0.00175476
0.00164542
0.0016602
0.00156221
0.00117953
0.000908391
0.000955925
0.000928678
0.000543694
6.31538e-05
-0.00015853
-0.000103577
3.97926e-05
0.00171209
0.00177297
0.00191351
0.00196558
0.00167263
0.00148508
0.00163207
0.00170592
0.00163046
0.00161762
0.00151271
0.00115774
0.000861991
0.000850966
0.000828261
0.000503076
4.607e-05
-0.000214818
-0.000209315
-5.62089e-05
0.00176823
0.0018085
0.00189368
0.00194599
0.00170422
0.00148015
0.00155958
0.00164226
0.00160383
0.00158279
0.00146962
0.00113538
0.00082085
0.000753125
0.000726332
0.000455537
3.05582e-05
-0.000254223
-0.000292798
-0.000150202
0.00182026
0.00184564
0.00188063
0.00191786
0.00172304
0.00148975
0.00150084
0.00157101
0.00156258
0.00154728
0.00143252
0.00111544
0.000786802
0.000665139
0.000622898
0.000400785
1.46286e-05
-0.000281594
-0.000354148
-0.00023242
0.00186805
0.00188234
0.00187475
0.00188593
0.0017278
0.00150002
0.0014571
0.00150036
0.00150733
0.00150422
0.00139965
0.00109954
0.000760978
0.000590283
0.000521186
0.000337148
-3.44119e-06
-0.000300738
-0.000396895
-0.000295916
0.00191169
0.00191694
0.00187545
0.0018542
0.00171869
0.00150756
0.00142751
0.00143635
0.00144217
0.00145047
0.00136515
0.00108791
0.000744316
0.000530324
0.000427459
0.000265076
-2.71122e-05
-0.000314173
-0.000426435
-0.000339429
0.00195139
0.00194829
0.00188112
0.00182549
0.00169869
0.00150807
0.00140766
0.00138269
0.00137471
0.00138703
0.00132277
0.00107762
0.000737427
0.000486238
0.000346543
0.000190259
-5.96115e-05
-0.000324786
-0.000447114
-0.000367365
0.0019874
0.00197597
0.00188929
0.00180127
0.00167185
0.00149953
0.00139144
0.00133973
0.00131176
0.00131715
0.00127084
0.00106226
0.000738084
0.000459589
0.000281636
0.000120024
-9.99039e-05
-0.000336685
-0.000461239
-0.000385822
0.00201991
0.00199974
0.00189764
0.00178172
0.00164193
0.00148172
0.00137413
0.00130621
0.00125706
0.00124679
0.00121148
0.00103789
0.000740682
0.000449041
0.000235833
5.97885e-05
-0.000142211
-0.000352282
-0.000470609
-0.000398405
0.00204886
0.00201953
0.00190446
0.00176587
0.00161208
0.0014559
0.00135237
0.00127809
0.00121157
0.00118156
0.00114743
0.0010047
0.000739359
0.000449502
0.000210941
1.45263e-05
-0.000180027
-0.000369577
-0.000477197
-0.000405791
0.00207317
0.00203564
0.00190859
0.00175444
0.00158411
0.00142504
0.00132459
0.00125079
0.00117431
0.00112552
0.00108381
0.000964561
0.000732467
0.000454999
0.000203743
-1.15383e-05
-0.000207909
-0.00038322
-0.000480557
-0.000407457
0.0020943
0.0020483
0.00190942
0.00174122
0.00155815
0.00139207
0.00129116
0.00122085
0.00114261
0.00107986
0.00102686
0.000920782
0.000719904
0.000461776
0.000208773
-1.80195e-05
-0.000220932
-0.000388147
-0.000476761
-0.000401249
0.00211102
0.00205758
0.00190686
0.00172593
0.00153334
0.00135932
0.00125345
0.00118643
0.00111205
0.00104234
0.000980476
0.000879453
0.000703616
0.000469236
0.00022247
-8.04006e-06
-0.000216156
-0.000380743
-0.000462454
-0.00038572
0.00212302
0.00206319
0.00190157
0.00170797
0.00150753
0.00132696
0.00121357
0.00114768
0.0010801
0.0010103
0.000943709
0.000846067
0.000688318
0.000478118
0.000244731
1.66222e-05
-0.00019261
-0.000357667
-0.000435211
-0.000358125
0.00213005
0.0020647
0.00189344
0.00168731
0.00147924
0.00129383
0.00117256
0.00110484
0.00104546
0.000981774
0.000914903
0.000822123
0.000679371
0.000490938
0.000276245
5.66009e-05
-0.00014944
-0.000314667
-0.000391165
-0.000314405
0.00213204
0.00206189
0.00188206
0.00166346
0.00144751
0.00125882
0.00113051
0.0010588
0.00100637
0.000953844
0.000892818
0.000806845
0.000680335
0.000513105
0.000319221
0.000113791
-8.42936e-05
-0.000246665
-0.000323868
-0.000248949
0.00212882
0.00205429
0.00186723
0.0016366
0.0014113
0.00121944
0.00108616
0.00101056
0.00096313
0.000923305
0.000874687
0.000799769
0.000691854
0.000548915
0.000377971
0.000191811
7.50678e-06
-0.000146989
-0.000223334
-0.000151933
0.00212035
0.00204157
0.00184821
0.00160671
0.0013708
0.00117414
0.00103681
0.00095835
0.000915413
0.000887998
0.000856699
0.000800054
0.000714897
0.000601084
0.000459058
0.000297827
0.000133934
-6.28783e-06
-7.7258e-05
-9.10381e-06
0.00210645
0.00202378
0.00182498
0.00157267
0.0013249
0.00112258
0.000980899
0.000899564
0.000860755
0.000844767
0.000832572
0.000802402
0.000748253
0.000671915
0.000571202
0.000445825
0.000310863
0.000193023
0.000133242
0.000199801
0.00208662
0.00200055
0.00179708
0.00153412
0.00127292
0.00106304
0.000916649
0.000831269
0.000795258
0.000789583
0.000795685
0.000795437
0.000781789
0.000756318
0.00071691
0.000654894
0.000574437
0.000492917
0.000446845
0.000505402
0.00206377
0.00197262
0.0017616
0.00148882
0.00121519
0.000995372
0.000841694
0.000750156
0.000712698
0.000714489
0.00073851
0.000766251
0.000795888
0.000828258
0.000870487
0.00092535
0.000981185
0.00102857
0.00106723
0.00113477
0.00203849
0.00193903
0.00171803
0.00143633
0.00115253
0.000921432
0.00075466
0.000652547
0.000607389
0.000608154
0.000646123
0.000704341
0.000784829
0.000878051
0.000973682
0.00108216
0.0012411
0.00153087
0.00198321
0.00250218
0.00200636
0.00189863
0.00166811
0.00137723
0.00108482
0.000843348
0.00066266
0.000539592
0.000475992
0.000460771
0.000493455
0.000556559
0.000669888
0.00090582
0.0013434
0.00196132
0.00262513
0.00319476
0.00357707
0.00372477
0.0019675
0.00185624
0.00161342
0.00130697
0.00100095
0.000749907
0.000566468
0.000443291
0.000374052
0.000350021
0.000405308
0.000626281
0.00104932
0.00156703
0.00206037
0.00248452
0.00283889
0.00313708
0.00336823
0.00347163
0.00192181
0.00181505
0.00157207
0.00125001
0.000903917
0.000592202
0.000339679
0.000184474
0.000192038
0.000406745
0.000778801
0.00120003
0.00160821
0.00199395
0.00237653
0.00277453
0.00317468
0.00353641
0.00379772
0.00387921
0.00185891
0.00173213
0.00149878
0.00120954
0.000916408
0.00068106
0.000525896
0.000460595
0.000482185
0.000554331
0.00065333
0.000766685
0.000921351
0.00118908
0.0016319
0.00227601
0.00302895
0.00371251
0.004174
0.00431568
0.00183265
0.00171609
0.00144757
0.00109254
0.000728005
0.000437114
0.000280472
0.000294102
0.000456748
0.00070679
0.00102308
0.00139421
0.00178842
0.00219289
0.00259459
0.00297886
0.00333312
0.0036307
0.00382555
0.00385328
0.00175143
0.00162724
0.00140918
0.00113159
0.000834876
0.000567303
0.000355407
0.000249302
0.00032804
0.00058661
0.000950314
0.00134454
0.00170169
0.00201485
0.00232548
0.00265598
0.00299793
0.003314
0.00354814
0.00362205
0.0118861
0.00732676
0.000173002
-0.00486999
-0.00593612
-0.00484298
-0.00347762
-0.00240026
-0.00172832
-0.00146654
-0.00140133
-0.00127503
-0.00104137
-0.000805905
-0.000610013
-0.000423563
-0.000286872
-0.000208847
-6.96306e-05
0.00015617
0.000364357
0.000527537
0.000682132
0.000842225
0.00102455
0.00122008
0.00138986
0.00152774
0.00166441
0.00181794
0.00197413
0.0021175
0.00225963
0.0024241
0.00260706
0.00278167
0.00294513
0.00312239
0.00331318
0.00349009
0.00365052
0.0038196
0.00399956
0.00417206
0.00433688
0.00451336
0.00470428
0.00489543
0.00508234
0.0052841
0.00550264
0.00572004
0.00594108
0.00617313
0.00639283
0.00660303
0.00682303
0.00704271
0.00727211
0.007523
0.00777939
0.00803629
0.00829681
0.00856256
0.00882619
0.00909946
0.00938472
0.00966863
0.00996317
0.0102669
0.0105729
0.0108886
0.0112149
0.0115504
0.0118856
0.0122306
0.0125816
0.0129375
0.0133046
0.0136773
0.0140621
0.0144444
0.0148351
0.015244
0.0156422
0.0160746
0.0165011
0.0169229
0.0173778
0.0178306
0.0182795
0.0187633
0.0192427
0.0197198
0.0202339
0.0207493
0.0212672
0.0217973
0.022369
0.022936
0.0112502
0.00720891
0.000272075
-0.00473789
-0.00585813
-0.00480355
-0.00345168
-0.00238113
-0.00171372
-0.00145521
-0.00139249
-0.00126789
-0.00103528
-0.000800592
-0.000605334
-0.000419264
-0.000282888
-0.000205414
-6.66808e-05
0.000158948
0.000366987
0.00052993
0.000684307
0.000844178
0.00102631
0.00122175
0.00139144
0.00152919
0.00166574
0.00181919
0.00197532
0.00211863
0.00226068
0.00242509
0.00260801
0.0027826
0.00294599
0.00312319
0.00331396
0.00349085
0.00365124
0.00382027
0.00400021
0.00417269
0.00433748
0.00451391
0.00470482
0.00489595
0.00508283
0.00528455
0.00550308
0.00572046
0.00594147
0.00617351
0.0063932
0.00660338
0.00682337
0.00704304
0.00727241
0.00752329
0.00777967
0.00803656
0.00829706
0.00856281
0.00882643
0.00909969
0.00938494
0.00966885
0.00996337
0.010267
0.0105731
0.0108888
0.0112151
0.0115506
0.0118858
0.0122308
0.0125818
0.0129377
0.0133048
0.0136775
0.0140622
0.0144446
0.0148352
0.0152441
0.0156423
0.0160747
0.0165012
0.016923
0.0173779
0.0178306
0.0182796
0.0187633
0.0192428
0.0197198
0.020234
0.0207494
0.0212673
0.0217974
0.0223691
0.0229361
0.0106246
0.00711167
0.000491872
-0.00447366
-0.00571883
-0.00475261
-0.00342724
-0.00236198
-0.00169751
-0.00144188
-0.00138147
-0.00125869
-0.00102772
-0.000794539
-0.000600484
-0.000415066
-0.000279056
-0.000202076
-6.37735e-05
0.000161637
0.000369449
0.000532159
0.000686375
0.000846051
0.00102799
0.00122332
0.0013929
0.00153052
0.00166694
0.00182031
0.00197639
0.00211963
0.00226159
0.00242595
0.00260885
0.00278341
0.00294675
0.0031239
0.00331466
0.00349152
0.00365187
0.00382086
0.00400079
0.00417324
0.00433799
0.0045144
0.00470529
0.0048964
0.00508325
0.00528494
0.00550346
0.00572083
0.00594182
0.00617386
0.00639354
0.00660369
0.00682367
0.00704332
0.00727267
0.00752354
0.00777992
0.0080368
0.00829729
0.00856303
0.00882664
0.00909988
0.00938514
0.00966904
0.00996355
0.0102672
0.0105733
0.0108889
0.0112152
0.0115507
0.0118859
0.0122309
0.0125819
0.0129378
0.0133049
0.0136776
0.0140624
0.0144447
0.0148353
0.0152442
0.0156424
0.0160748
0.0165013
0.0169231
0.017378
0.0178307
0.0182797
0.0187634
0.0192429
0.0197199
0.0202341
0.0207495
0.0212674
0.0217975
0.0223691
0.0229363
0.0100471
0.00702473
0.000769703
-0.00413528
-0.00552856
-0.00468426
-0.00339533
-0.00233572
-0.00167531
-0.0014241
-0.00136632
-0.00124537
-0.00101652
-0.000785674
-0.000593714
-0.000409645
-0.000274174
-0.000197504
-5.97034e-05
0.000165044
0.000372277
0.000534747
0.000688939
0.00084846
0.00103011
0.0012252
0.00139462
0.00153209
0.00166836
0.00182158
0.00197754
0.0021207
0.00226258
0.00242688
0.00260974
0.00278427
0.00294755
0.00312467
0.0033154
0.00349224
0.00365253
0.00382149
0.00400139
0.00417381
0.00433852
0.0045149
0.00470578
0.00489688
0.00508369
0.00528535
0.00550387
0.00572121
0.00594218
0.00617422
0.0063939
0.00660401
0.00682397
0.00704361
0.00727293
0.0075238
0.00778017
0.00803704
0.00829752
0.00856325
0.00882685
0.00910008
0.00938533
0.00966922
0.00996373
0.0102674
0.0105735
0.0108891
0.0112154
0.0115509
0.0118861
0.0122311
0.012582
0.0129379
0.013305
0.0136777
0.0140625
0.0144448
0.0148354
0.0152443
0.0156425
0.0160749
0.0165014
0.0169232
0.0173781
0.0178308
0.0182798
0.0187635
0.019243
0.01972
0.0202341
0.0207495
0.0212674
0.0217975
0.0223692
0.0229366
0.00948313
0.00690761
0.00105068
-0.00377611
-0.00531922
-0.00460857
-0.00336018
-0.00230461
-0.00164786
-0.00140165
-0.00134635
-0.001227
-0.00100073
-0.000773001
-0.000584068
-0.000402253
-0.000267497
-0.00019068
-5.34106e-05
0.000169892
0.000375867
0.00053799
0.000692351
0.000851816
0.00103303
0.00122764
0.00139683
0.00153424
0.00167035
0.00182327
0.00197897
0.00212201
0.00226381
0.00242798
0.00261075
0.00278524
0.00294851
0.00312558
0.00331626
0.00349305
0.00365331
0.00382223
0.00400209
0.00417446
0.00433913
0.00451549
0.00470634
0.00489741
0.00508419
0.00528583
0.00550433
0.00572165
0.00594259
0.00617463
0.0063943
0.00660437
0.00682432
0.00704393
0.00727323
0.00752409
0.00778046
0.00803732
0.00829778
0.0085635
0.00882708
0.0091003
0.00938555
0.00966943
0.00996392
0.0102676
0.0105736
0.0108893
0.0112156
0.011551
0.0118862
0.0122312
0.0125822
0.0129381
0.0133052
0.0136778
0.0140626
0.0144449
0.0148355
0.0152444
0.0156427
0.016075
0.0165015
0.0169233
0.0173782
0.0178309
0.0182798
0.0187636
0.019243
0.01972
0.0202342
0.0207496
0.0212675
0.0217976
0.0223692
0.0229369
0.00892274
0.00674728
0.00132178
-0.00340674
-0.00509699
-0.00452824
-0.0033246
-0.00227172
-0.00161734
-0.00137608
-0.00132309
-0.00120512
-0.000981556
-0.00075724
-0.000571817
-0.000392879
-0.000258836
-0.000181227
-4.44057e-05
0.00017664
0.000380558
0.000542103
0.000696782
0.0008563
0.00103687
0.00123068
0.00139959
0.00153712
0.00167314
0.00182559
0.00198085
0.00212373
0.00226544
0.00242938
0.00261191
0.00278635
0.00294966
0.00312668
0.00331725
0.003494
0.00365427
0.00382316
0.00400292
0.00417522
0.00433986
0.00451619
0.00470699
0.00489802
0.00508477
0.00528639
0.00550487
0.00572216
0.00594308
0.00617512
0.00639476
0.0066048
0.00682471
0.00704431
0.00727358
0.00752443
0.00778079
0.00803763
0.00829808
0.00856379
0.00882734
0.00910054
0.0093858
0.00966967
0.00996414
0.0102678
0.0105738
0.0108895
0.0112157
0.0115512
0.0118864
0.0122314
0.0125824
0.0129382
0.0133053
0.013678
0.0140628
0.0144451
0.0148357
0.0152445
0.0156428
0.0160751
0.0165017
0.0169234
0.0173783
0.017831
0.0182799
0.0187637
0.0192431
0.0197201
0.0202343
0.0207497
0.0212676
0.0217976
0.0223693
0.0229374
0.00837044
0.00654933
0.00158275
-0.00302627
-0.00486007
-0.00444201
-0.00328892
-0.00223817
-0.00158449
-0.00134807
-0.00129779
-0.00118135
-0.000960588
-0.000739767
-0.000557998
-0.000382144
-0.000248587
-0.000169516
-3.29462e-05
0.00018528
0.000386513
0.000547243
0.0007023
0.000861916
0.0010416
0.00123424
0.00140278
0.00154067
0.00167676
0.00182865
0.00198331
0.00212603
0.00226768
0.00243122
0.00261329
0.00278763
0.00295105
0.00312799
0.00331836
0.00349507
0.00365545
0.00382432
0.00400394
0.00417615
0.00434078
0.00451706
0.00470777
0.00489874
0.00508546
0.00528705
0.0055055
0.00572276
0.00594367
0.0061757
0.00639532
0.0066053
0.00682519
0.00704475
0.00727399
0.00752484
0.00778118
0.00803801
0.00829843
0.00856411
0.00882765
0.00910083
0.00938608
0.00966993
0.00996439
0.010268
0.0105741
0.0108897
0.011216
0.0115514
0.0118866
0.0122316
0.0125825
0.0129384
0.0133055
0.0136781
0.0140629
0.0144452
0.0148358
0.0152447
0.0156429
0.0160753
0.0165018
0.0169235
0.0173784
0.0178311
0.01828
0.0187638
0.0192433
0.0197202
0.0202344
0.0207498
0.0212676
0.0217977
0.0223693
0.0229379
0.00783726
0.00632168
0.00183198
-0.00263529
-0.00460745
-0.0043491
-0.00325353
-0.00220475
-0.00154973
-0.00131778
-0.00127081
-0.00115632
-0.000938489
-0.00072125
-0.000543227
-0.000370539
-0.000237299
-0.000156312
-1.97681e-05
0.000195401
0.000393614
0.00055338
0.000708822
0.000868517
0.00104708
0.0012382
0.00140627
0.00154469
0.00168103
0.00183234
0.00198636
0.002129
0.00227063
0.00243364
0.00261502
0.00278917
0.00295272
0.00312952
0.00331956
0.00349624
0.00365684
0.00382574
0.00400517
0.00417727
0.00434194
0.00451818
0.00470873
0.0048996
0.00508629
0.00528783
0.00550621
0.00572345
0.00594437
0.0061764
0.00639599
0.00660593
0.00682576
0.00704528
0.0072745
0.00752532
0.00778166
0.00803846
0.00829886
0.00856451
0.00882801
0.00910117
0.00938642
0.00967025
0.00996469
0.0102683
0.0105743
0.0108899
0.0112162
0.0115517
0.0118868
0.0122318
0.0125828
0.0129386
0.0133057
0.0136783
0.0140631
0.0144454
0.014836
0.0152449
0.0156431
0.0160754
0.016502
0.0169237
0.0173786
0.0178313
0.0182802
0.0187639
0.0192434
0.0197203
0.0202345
0.0207499
0.0212677
0.0217978
0.0223694
0.0229386
0.0073332
0.0060697
0.00206289
-0.00223811
-0.00433931
-0.00424855
-0.00321826
-0.00217197
-0.00151332
-0.00128516
-0.0012421
-0.00113007
-0.000915376
-0.000701807
-0.000527621
-0.000358221
-0.000225323
-0.000142228
-5.51968e-06
0.000206556
0.000401615
0.000560346
0.000716161
0.000875885
0.00105315
0.0012425
0.00140997
0.00154899
0.00168569
0.00183643
0.00198985
0.00213255
0.00227429
0.00243669
0.00261717
0.00279103
0.00295473
0.00313131
0.00332085
0.00349747
0.00365839
0.00382737
0.00400658
0.00417859
0.00434336
0.00451958
0.00470993
0.00490067
0.00508732
0.00528875
0.00550701
0.00572421
0.00594514
0.00617719
0.0063968
0.0066067
0.00682647
0.00704594
0.00727512
0.0075259
0.00778221
0.00803902
0.00829939
0.00856499
0.00882845
0.00910159
0.00938683
0.00967064
0.00996506
0.0102687
0.0105746
0.0108902
0.0112165
0.0115519
0.0118871
0.0122321
0.012583
0.0129388
0.0133059
0.0136785
0.0140633
0.0144456
0.0148362
0.015245
0.0156432
0.0160756
0.0165021
0.0169238
0.0173787
0.0178314
0.0182803
0.018764
0.0192435
0.0197205
0.0202347
0.02075
0.0212679
0.0217979
0.0223695
0.0229394
0.00686554
0.00579778
0.00226732
-0.00183957
-0.00405499
-0.00413802
-0.00318211
-0.00214009
-0.00147564
-0.00125015
-0.00121148
-0.00110255
-0.000891244
-0.000681405
-0.000511134
-0.000345203
-0.000212804
-0.00012755
9.47294e-06
0.000218486
0.000410318
0.000567959
0.000724125
0.000883841
0.00105968
0.0012471
0.00141387
0.0015535
0.00169057
0.00184075
0.00199361
0.00213652
0.00227852
0.00244028
0.00261974
0.00279326
0.00295709
0.00313336
0.00332226
0.00349874
0.00366003
0.00382914
0.00400811
0.00418007
0.00434502
0.00452125
0.00471139
0.00490198
0.0050886
0.00528988
0.00550792
0.00572502
0.00594594
0.00617802
0.00639769
0.00660762
0.00682733
0.00704675
0.00727587
0.00752658
0.00778286
0.00803967
0.00830001
0.00856556
0.00882898
0.0091021
0.00938733
0.00967113
0.0099655
0.0102691
0.010575
0.0108906
0.0112168
0.0115522
0.0118874
0.0122324
0.0125833
0.0129391
0.0133061
0.0136788
0.0140635
0.0144458
0.0148364
0.0152453
0.0156434
0.0160758
0.0165023
0.016924
0.017379
0.0178316
0.0182805
0.0187642
0.0192437
0.0197206
0.0202348
0.0207502
0.021268
0.0217981
0.0223696
0.0229403
0.00643829
0.00551104
0.00243861
-0.00144363
-0.00375318
-0.00401472
-0.00314389
-0.00210959
-0.00143738
-0.0012129
-0.00117885
-0.00107367
-0.000866022
-0.00065997
-0.0004937
-0.000331447
-0.000199742
-0.000112325
2.51299e-05
0.000231097
0.000419618
0.000576103
0.000732603
0.000892291
0.00106664
0.00125202
0.00141799
0.0015582
0.00169565