/*--------------------------------*- C++ -*----------------------------------*\
| =========                 |                                                 |
| \\      /  F ield         | OpenFOAM: The Open Source CFD Toolbox           |
|  \\    /   O peration     | Version:  2506                                  |
|   \\  /    A nd           | Website:  www.openfoam.com                      |
|    \\/     M anipulation  |                                                 |
\*---------------------------------------------------------------------------*/
FoamFile
{
    version     2.0;
    format      ascii;
    arch        "LSB;label=32;scalar=64";
    class       surfaceScalarField;
    location    "1.65";
    object      phi;
}
// * * * * * * * * * * * * * * * * * * * * * * * * * * * * * * * * * * * * * //

dimensions      [0 3 -1 0 0 0 0];

oriented        oriented;

internalField   nonuniform List<scalar> 
19000
(
1.176e-06
-2.24603e-07
1.15334e-06
3.41823e-07
1.1598e-06
-5.45689e-07
1.20356e-06
-6.54261e-08
1.22357e-06
-1.61935e-07
1.17314e-06
3.54266e-07
1.16706e-06
5.43844e-07
1.1606e-06
2.14826e-07
1.16019e-06
-3.63274e-07
1.1816e-06
-3.09188e-07
1.19465e-06
-3.75801e-07
1.18632e-06
-3.48246e-07
1.20095e-06
-5.14027e-08
1.17924e-06
-2.38876e-07
1.19231e-06
3.18206e-07
1.16089e-06
1.02638e-07
1.16855e-06
3.26549e-07
1.14481e-06
1.7596e-07
1.14451e-06
1.8122e-07
1.22822e-07
1.10979e-06
1.23236e-06
-2.32701e-07
1.21331e-06
3.60875e-07
1.22e-06
-5.52384e-07
1.26371e-06
-1.09132e-07
1.28292e-06
-1.8115e-07
1.23685e-06
4.00343e-07
1.22287e-06
5.57819e-07
1.22339e-06
2.14309e-07
1.21918e-06
-3.59062e-07
1.23985e-06
-3.29862e-07
1.25098e-06
-3.86928e-07
1.24602e-06
-3.43288e-07
1.25566e-06
-6.10408e-08
1.24018e-06
-2.23403e-07
1.24058e-06
3.17813e-07
1.22699e-06
1.16224e-07
1.21151e-06
3.42027e-07
1.21568e-06
1.71791e-07
1.1855e-06
2.11405e-07
1.13692e-07
1.19463e-06
1.28971e-06
-2.39625e-07
1.27802e-06
3.72558e-07
1.28197e-06
-5.56335e-07
1.32593e-06
-1.5309e-07
1.34249e-06
-1.97704e-07
1.30854e-06
4.34292e-07
1.28558e-06
5.80776e-07
1.28953e-06
2.1036e-07
1.2798e-06
-3.49333e-07
1.29863e-06
-3.48688e-07
1.30616e-06
-3.94456e-07
1.30807e-06
-3.45201e-07
1.3124e-06
-6.53681e-08
1.30473e-06
-2.15738e-07
1.29883e-06
3.23712e-07
1.29353e-06
1.21524e-07
1.2764e-06
3.59164e-07
1.27789e-06
1.70295e-07
1.26077e-06
2.28529e-07
1.25076e-07
1.24938e-06
1.34869e-06
-2.44215e-07
1.34434e-06
3.76909e-07
1.34423e-06
-5.56223e-07
1.38656e-06
-1.95417e-07
1.40033e-06
-2.11478e-07
1.38039e-06
4.54227e-07
1.35415e-06
6.07025e-07
1.3556e-06
2.08906e-07
1.3423e-06
-3.36033e-07
1.35631e-06
-3.62696e-07
1.36164e-06
-3.99786e-07
1.36784e-06
-3.51402e-07
1.37119e-06
-6.87232e-08
1.3676e-06
-2.12145e-07
1.36442e-06
3.26889e-07
1.35934e-06
1.26602e-07
1.34955e-06
3.68958e-07
1.34373e-06
1.76119e-07
1.33574e-06
2.36517e-07
1.42667e-07
1.31815e-06
1.41017e-06
-2.46031e-07
1.41109e-06
3.75993e-07
1.40707e-06
-5.52205e-07
1.44441e-06
-2.3276e-07
1.45636e-06
-2.23428e-07
1.44825e-06
4.62341e-07
1.42537e-06
6.29902e-07
1.42164e-06
2.12632e-07
1.40752e-06
-3.21905e-07
1.41547e-06
-3.70648e-07
1.41919e-06
-4.03505e-07
1.42677e-06
-3.58984e-07
1.43099e-06
-7.29399e-08
1.42936e-06
-2.10519e-07
1.43075e-06
3.25501e-07
1.42541e-06
1.31941e-07
1.4213e-06
3.73068e-07
1.41209e-06
1.8533e-07
1.40694e-06
2.41671e-07
1.6098e-07
1.38862e-06
1.47521e-06
-2.45565e-07
1.47878e-06
3.72418e-07
1.47212e-06
-5.45545e-07
1.50129e-06
-2.61929e-07
1.51203e-06
-2.34167e-07
1.51222e-06
4.62152e-07
1.49678e-06
6.45345e-07
1.4895e-06
2.19912e-07
1.47603e-06
-3.0844e-07
1.47895e-06
-3.73569e-07
1.48033e-06
-4.04878e-07
1.48736e-06
-3.66019e-07
1.49201e-06
-7.75894e-08
1.49144e-06
-2.09954e-07
1.49644e-06
3.20505e-07
1.49173e-06
1.36654e-07
1.49153e-06
3.73263e-07
1.48105e-06
1.95816e-07
1.47772e-06
2.45001e-07
1.79432e-07
1.45926e-06
1.54448e-06
-2.43831e-07
1.54894e-06
3.67958e-07
1.54102e-06
-5.37623e-07
1.56043e-06
-2.81335e-07
1.56943e-06
-2.43173e-07
1.57488e-06
4.5671e-07
1.56775e-06
6.52469e-07
1.56048e-06
2.27186e-07
1.54812e-06
-2.96084e-07
1.54773e-06
-3.73172e-07
1.54615e-06
-4.03299e-07
1.55129e-06
-3.71163e-07
1.55537e-06
-8.16632e-08
1.55503e-06
-2.09616e-07
1.56253e-06
3.13003e-07
1.55863e-06
1.4055e-07
1.5617e-06
3.70201e-07
1.55071e-06
2.06805e-07
1.54949e-06
2.46215e-07
1.97495e-07
1.53143e-06
1.61802e-06
-2.41724e-07
1.62282e-06
3.63161e-07
1.6145e-06
-5.29306e-07
1.62458e-06
-2.91415e-07
1.63067e-06
-2.49261e-07
1.6392e-06
4.48175e-07
1.63942e-06
6.5225e-07
1.63499e-06
2.3162e-07
1.62385e-06
-2.84943e-07
1.62147e-06
-3.70794e-07
1.61702e-06
-3.98855e-07
1.6195e-06
-3.73642e-07
1.62215e-06
-8.43047e-08
1.62112e-06
-2.08587e-07
1.63022e-06
3.03897e-07
1.62682e-06
1.43955e-07
1.63287e-06
3.64147e-07
1.62181e-06
2.17869e-07
1.62288e-06
2.45142e-07
2.14369e-07
1.60601e-06
1.69551e-06
-2.39661e-07
1.70084e-06
3.57832e-07
1.69244e-06
-5.2091e-07
1.6951e-06
-2.94075e-07
1.69743e-06
-2.51582e-07
1.70761e-06
4.37988e-07
1.71357e-06
6.4629e-07
1.71306e-06
2.32133e-07
1.70308e-06
-2.74961e-07
1.69955e-06
-3.67261e-07
1.69276e-06
-3.92064e-07
1.69239e-06
-3.73279e-07
1.69318e-06
-8.50983e-08
1.69065e-06
-2.06049e-07
1.70068e-06
2.93865e-07
1.69729e-06
1.47344e-07
1.70612e-06
3.55314e-07
1.69532e-06
2.28672e-07
1.69852e-06
2.41942e-07
2.29279e-07
1.68361e-06
1.77671e-06
-2.37647e-07
1.78285e-06
3.51686e-07
1.7744e-06
-5.12458e-07
1.77208e-06
-2.91749e-07
1.77066e-06
-2.50169e-07
1.78163e-06
4.27022e-07
1.79168e-06
6.3624e-07
1.79478e-06
2.29037e-07
1.7857e-06
-2.65881e-07
1.78147e-06
-3.6304e-07
1.77299e-06
-3.83576e-07
1.77003e-06
-3.70323e-07
1.76906e-06
-8.41242e-08
1.7645e-06
-2.01494e-07
1.77504e-06
2.83324e-07
1.77125e-06
1.51135e-07
1.78255e-06
3.44011e-07
1.7723e-06
2.3893e-07
1.77713e-06
2.37108e-07
2.41617e-07
1.76479e-06
1.86162e-06
-2.35522e-07
1.86865e-06
3.44662e-07
1.86006e-06
-5.03868e-07
1.85493e-06
-2.86626e-07
1.85053e-06
-2.45763e-07
1.86187e-06
4.15679e-07
1.87454e-06
6.23569e-07
1.88031e-06
2.2327e-07
1.87173e-06
-2.57306e-07
1.86704e-06
-3.58348e-07
1.85747e-06
-3.74003e-07
1.85239e-06
-3.65242e-07
1.85009e-06
-8.1827e-08
1.84339e-06
-1.94789e-07
1.85429e-06
2.72425e-07
1.84982e-06
1.55601e-07
1.86314e-06
3.30685e-07
1.85366e-06
2.48411e-07
1.85937e-06
2.31402e-07
2.50956e-07
1.85003e-06
1.95047e-06
-2.33155e-07
1.95824e-06
3.36894e-07
1.94938e-06
-4.9501e-07
1.94304e-06
-2.80282e-07
1.93662e-06
-2.39341e-07
1.94827e-06
4.04031e-07
1.9624e-06
6.09432e-07
1.96988e-06
2.15797e-07
1.96142e-06
-2.4885e-07
1.95631e-06
-3.53237e-07
1.94615e-06
-3.63842e-07
1.93943e-06
-3.5853e-07
1.93642e-06
-7.88134e-08
1.92774e-06
-1.86106e-07
1.93904e-06
2.61123e-07
1.93381e-06
1.60831e-07
1.94859e-06
3.15908e-07
1.9401e-06
2.56903e-07
1.94576e-06
2.25742e-07
2.57034e-07
1.93968e-06
2.04353e-06
-2.30497e-07
2.05188e-06
3.28542e-07
2.04261e-06
-4.85733e-07
2.03599e-06
-2.73663e-07
2.02837e-06
-2.31725e-07
2.04042e-06
3.91984e-07
2.05523e-06
5.94614e-07
2.06369e-06
2.07338e-07
2.05509e-06
-2.40247e-07
2.04952e-06
-3.47663e-07
2.03911e-06
-3.5344e-07
2.03117e-06
-3.50585e-07
2.02803e-06
-7.56734e-08
2.0177e-06
-1.7578e-07
2.02955e-06
2.4928e-07
2.02365e-06
1.6673e-07
2.03924e-06
3.00317e-07
2.03196e-06
2.64182e-07
2.03671e-06
2.20989e-07
2.59795e-07
2.03395e-06
2.14105e-06
-2.27546e-07
2.14989e-06
3.19701e-07
2.14005e-06
-4.75889e-07
2.13362e-06
-2.67238e-07
2.12533e-06
-2.23434e-07
2.13791e-06
3.79402e-07
2.15296e-06
5.79563e-07
2.16197e-06
1.98332e-07
2.15311e-06
-2.31385e-07
2.14699e-06
-3.41543e-07
2.13658e-06
-3.43027e-07
2.12765e-06
-3.41654e-07
2.12483e-06
-7.28625e-08
2.11324e-06
-1.64189e-07
2.12574e-06
2.36788e-07
2.11941e-06
1.73054e-07
2.13516e-06
2.84564e-07
2.12935e-06
2.69993e-07
2.1326e-06
2.17741e-07
2.59456e-07
2.13294e-06
2.24326e-06
-2.24314e-07
2.25257e-06
3.10385e-07
2.24205e-06
-4.65363e-07
2.236e-06
-2.61193e-07
2.22729e-06
-2.14718e-07
2.24051e-06
3.6618e-07
2.25559e-06
5.64483e-07
2.2649e-06
1.89018e-07
2.2558e-06
-2.22281e-07
2.24904e-06
-3.34791e-07
2.23878e-06
-3.32763e-07
2.22898e-06
-3.31851e-07
2.22677e-06
-7.06535e-08
2.21426e-06
-1.51679e-07
2.22739e-06
2.23656e-07
2.22098e-06
1.79462e-07
2.23627e-06
2.69279e-07
2.23219e-06
2.74069e-07
2.23374e-06
2.16191e-07
2.56547e-07
2.23665e-06
2.35036e-06
-2.20803e-07
2.36019e-06
3.0056e-07
2.34891e-06
-4.54088e-07
2.3433e-06
-2.55577e-07
2.33423e-06
-2.05653e-07
2.34814e-06
3.52276e-07
2.36319e-06
5.49433e-07
2.37268e-06
1.79526e-07
2.36344e-06
-2.1304e-07
2.35597e-06
-3.27323e-07
2.34598e-06
-3.22773e-07
2.33534e-06
-3.21207e-07
2.33383e-06
-6.91428e-08
2.3207e-06
-1.3855e-07
2.3343e-06
2.1005e-07
2.3282e-06
1.85563e-07
2.34245e-06
2.55031e-07
2.34033e-06
2.76186e-07
2.34029e-06
2.16233e-07
2.51748e-07
2.34509e-06
2.4626e-06
-2.17003e-07
2.47298e-06
2.90178e-07
2.46092e-06
-4.42035e-07
2.45573e-06
-2.50382e-07
2.44632e-06
-1.96241e-07
2.46089e-06
3.37707e-07
2.47592e-06
5.34397e-07
2.4855e-06
1.69944e-07
2.47628e-06
-2.03818e-07
2.46803e-06
-3.19071e-07
2.45842e-06
-3.13165e-07
2.44696e-06
-3.09742e-07
2.44609e-06
-6.82805e-08
2.43262e-06
-1.25075e-07
2.44639e-06
1.96279e-07
2.44097e-06
1.90982e-07
2.45374e-06
2.4226e-07
2.45367e-06
2.7626e-07
2.45234e-06
2.17562e-07
2.45752e-07
2.45834e-06
2.58019e-06
-2.12899e-07
2.59117e-06
2.79199e-07
2.57834e-06
-4.29204e-07
2.57354e-06
-2.45583e-07
2.56377e-06
-1.86472e-07
2.57893e-06
3.22543e-07
2.59401e-06
5.19326e-07
2.60359e-06
1.60358e-07
2.59456e-06
-1.94789e-07
2.58547e-06
-3.09976e-07
2.57632e-06
-3.04013e-07
2.56409e-06
-2.97516e-07
2.56371e-06
-6.79023e-08
2.55017e-06
-1.11529e-07
2.56371e-06
1.82737e-07
2.55928e-06
1.95408e-07
2.57034e-06
2.31203e-07
2.57218e-06
2.74416e-07
2.57003e-06
2.19717e-07
2.39202e-07
2.57658e-06
2.70341e-06
-2.08479e-07
2.715e-06
2.67603e-07
2.70142e-06
-4.15616e-07
2.69698e-06
-2.41147e-07
2.68687e-06
-1.76362e-07
2.70252e-06
3.06888e-07
2.7177e-06
5.04148e-07
2.72719e-06
1.50872e-07
2.71852e-06
-1.86124e-07
2.70855e-06
-2.99999e-07
2.69988e-06
-2.95343e-07
2.68702e-06
-2.8466e-07
2.68688e-06
-6.77592e-08
2.67355e-06
-9.82028e-08
2.68646e-06
1.69827e-07
2.68323e-06
1.98641e-07
2.69254e-06
2.21887e-07
2.69601e-06
2.70946e-07
2.69353e-06
2.22196e-07
2.32629e-07
2.70011e-06
2.83252e-06
-2.03734e-07
2.84474e-06
2.55391e-07
2.83043e-06
-4.01308e-07
2.82631e-06
-2.37028e-07
2.81591e-06
-1.65962e-07
2.83193e-06
2.90868e-07
2.8473e-06
4.88774e-07
2.85657e-06
1.4161e-07
2.84842e-06
-1.77974e-07
2.83754e-06
-2.89127e-07
2.82931e-06
-2.87113e-07
2.81603e-06
-2.71379e-07
2.81584e-06
-6.75618e-08
2.80301e-06
-8.53733e-08
2.81494e-06
1.57894e-07
2.81297e-06
2.0061e-07
2.82069e-06
2.1417e-07
2.82544e-06
2.66195e-07
2.82307e-06
2.24568e-07
2.26389e-07
2.82931e-06
2.96782e-06
-1.98662e-07
2.98063e-06
2.42584e-07
2.96566e-06
-3.86336e-07
2.9618e-06
-2.33168e-07
2.9512e-06
-1.55359e-07
2.96744e-06
2.7462e-07
2.98312e-06
4.731e-07
2.99202e-06
1.32705e-07
2.9845e-06
-1.70453e-07
2.97277e-06
-2.77391e-07
2.96486e-06
-2.79205e-07
2.95141e-06
-2.57934e-07
2.95086e-06
-6.70067e-08
2.93877e-06
-7.32826e-08
2.94952e-06
1.47144e-07
2.94873e-06
2.01398e-07
2.9551e-06
2.07802e-07
2.96082e-06
2.60468e-07
2.95886e-06
2.26536e-07
2.20668e-07
2.96458e-06
3.10961e-06
-1.93271e-07
3.12297e-06
2.29228e-07
3.10741e-06
-3.70779e-07
3.10374e-06
-2.29493e-07
3.09304e-06
-1.44665e-07
3.10937e-06
2.58299e-07
3.12545e-06
4.57018e-07
3.13387e-06
1.24282e-07
3.12704e-06
-1.63626e-07
3.11454e-06
-2.64883e-07
3.10677e-06
-2.71438e-07
3.09344e-06
-2.44609e-07
3.09227e-06
-6.58277e-08
3.08107e-06
-6.20833e-08
3.09058e-06
1.37625e-07
3.09079e-06
2.01192e-07
3.09606e-06
2.02528e-07
3.10256e-06
2.53969e-07
3.10117e-06
2.27934e-07
2.1553e-07
3.1063e-06
3.25821e-06
-1.87575e-07
3.27206e-06
2.15384e-07
3.25601e-06
-3.54734e-07
3.25243e-06
-2.25915e-07
3.24178e-06
-1.34009e-07
3.25801e-06
2.42064e-07
3.27461e-06
4.40423e-07
3.28245e-06
1.16437e-07
3.27632e-06
-1.57498e-07
3.2632e-06
-2.51757e-07
3.25534e-06
-2.63581e-07
3.2424e-06
-2.3167e-07
3.24041e-06
-6.38396e-08
3.23013e-06
-5.18034e-08
3.2385e-06
1.29257e-07
3.23949e-06
2.00208e-07
3.24386e-06
1.98149e-07
3.25102e-06
2.46816e-07
3.25029e-06
2.28662e-07
2.10993e-07
3.25483e-06
3.41395e-06
-1.81596e-07
3.42821e-06
2.01129e-07
3.41179e-06
-3.38317e-07
3.40821e-06
-2.22333e-07
3.39773e-06
-1.23526e-07
3.41371e-06
2.2608e-07
3.43089e-06
4.23239e-07
3.43812e-06
1.09216e-07
3.43263e-06
-1.52016e-07
3.41909e-06
-2.38213e-07
3.41092e-06
-2.55411e-07
3.39855e-06
-2.19305e-07
3.39568e-06
-6.09644e-08
3.38623e-06
-4.2351e-08
3.39361e-06
1.21879e-07
3.39519e-06
1.98623e-07
3.39879e-06
1.94547e-07
3.40652e-06
2.39093e-07
3.40656e-06
2.28617e-07
2.07085e-07
3.41047e-06
3.57718e-06
-1.7536e-07
3.59175e-06
1.86551e-07
3.5751e-06
-3.21662e-07
3.57141e-06
-2.18644e-07
3.56123e-06
-1.13349e-07
3.57681e-06
2.10497e-07
3.59462e-06
4.05432e-07
3.60123e-06
1.02608e-07
3.59629e-06
-1.47079e-07
3.58256e-06
-2.24475e-07
3.57387e-06
-2.46727e-07
3.56219e-06
-2.07628e-07
3.55845e-06
-5.72242e-08
3.54964e-06
-3.35358e-08
3.5562e-06
1.15314e-07
3.5583e-06
1.96528e-07
3.56119e-06
1.91657e-07
3.56936e-06
2.30918e-07
3.57033e-06
2.27647e-07
2.03853e-07
3.57357e-06
3.74824e-06
-1.68894e-07
3.76304e-06
1.71747e-07
3.7463e-06
-3.04915e-07
3.7424e-06
-2.14747e-07
3.73264e-06
-1.03594e-07
3.7477e-06
1.95439e-07
3.76611e-06
3.87024e-07
3.77217e-06
9.65462e-08
3.76765e-06
-1.42559e-07
3.75394e-06
-2.10761e-07
3.7446e-06
-2.37389e-07
3.73363e-06
-1.96654e-07
3.72913e-06
-5.27307e-08
3.72071e-06
-2.51139e-08
3.72661e-06
1.09416e-07
3.72918e-06
1.93956e-07
3.73145e-06
1.89386e-07
3.73987e-06
2.22501e-07
3.74196e-06
2.2556e-07
2.01314e-07
3.7445e-06
3.92752e-06
-1.62224e-07
3.94244e-06
1.5682e-07
3.92576e-06
-2.88233e-07
3.92157e-06
-2.10557e-07
3.91232e-06
-9.43423e-08
3.92678e-06
1.80974e-07
3.94571e-06
3.68095e-07
3.95133e-06
9.09274e-08
3.94709e-06
-1.3832e-07
3.93359e-06
-1.97259e-07
3.92353e-06
-2.27331e-07
3.91319e-06
-1.86313e-07
3.90809e-06
-4.76324e-08
3.89985e-06
-1.68692e-08
3.90514e-06
1.04119e-07
3.90821e-06
1.90886e-07
3.90999e-06
1.87613e-07
3.91837e-06
2.14114e-07
3.92175e-06
2.22182e-07
1.99368e-07
3.9237e-06
4.1154e-06
-1.55373e-07
4.13034e-06
1.41881e-07
4.11387e-06
-2.71768e-07
4.10933e-06
-2.06014e-07
4.10062e-06
-8.56357e-08
4.11449e-06
1.6711e-07
4.1338e-06
3.48784e-07
4.1391e-06
8.56302e-08
4.13501e-06
-1.34237e-07
4.12186e-06
-1.84101e-07
4.11109e-06
-2.16568e-07
4.10126e-06
-1.76484e-07
4.09571e-06
-4.20823e-08
4.0875e-06
-8.65397e-09
4.0922e-06
9.94169e-08
4.09579e-06
1.87293e-07
4.09721e-06
1.86196e-07
4.1053e-06
2.06029e-07
4.11001e-06
2.17463e-07
1.97732e-07
4.11165e-06
4.31229e-06
-1.48363e-07
4.32713e-06
1.27039e-07
4.31103e-06
-2.55661e-07
4.30612e-06
-2.01105e-07
4.29794e-06
-7.746e-08
4.31126e-06
1.53792e-07
4.33078e-06
3.29263e-07
4.33587e-06
8.05417e-08
4.33186e-06
-1.30225e-07
4.31911e-06
-1.71353e-07
4.3077e-06
-2.05151e-07
4.29826e-06
-1.67045e-07
4.29238e-06
-3.62093e-08
4.28409e-06
-3.5724e-10
4.28819e-06
9.5315e-08
4.29234e-06
1.83145e-07
4.29356e-06
1.84975e-07
4.30111e-06
1.98477e-07
4.30705e-06
2.11517e-07
1.95974e-07
4.30881e-06
4.51862e-06
-1.41212e-07
4.53326e-06
1.12399e-07
4.51762e-06
-2.40018e-07
4.51239e-06
-1.9588e-07
4.50468e-06
-6.97436e-08
4.51755e-06
1.40915e-07
4.53711e-06
3.09712e-07
4.54207e-06
7.55777e-08
4.5381e-06
-1.26252e-07
4.52576e-06
-1.5902e-07
4.51374e-06
-1.93131e-07
4.5046e-06
-1.579e-07
4.49849e-06
-3.01027e-08
4.49003e-06
8.1032e-09
4.49354e-06
9.18095e-08
4.49828e-06
1.78399e-07
4.49947e-06
1.83785e-07
4.50635e-06
1.91607e-07
4.51323e-06
2.04632e-07
1.93639e-07
4.51557e-06
4.73484e-06
-1.33937e-07
4.74919e-06
9.80477e-08
4.73407e-06
-2.24893e-07
4.72865e-06
-1.9046e-07
4.72127e-06
-6.23727e-08
4.73382e-06
1.28375e-07
4.75324e-06
2.90283e-07
4.75808e-06
7.07387e-08
4.75419e-06
-1.22358e-07
4.74226e-06
-1.47095e-07
4.72966e-06
-1.80528e-07
4.7207e-06
-1.48945e-07
4.71447e-06
-2.38722e-08
4.70576e-06
1.68188e-08
4.7087e-06
8.88642e-08
4.71409e-06
1.73015e-07
4.71543e-06
1.82444e-07
4.72155e-06
1.85484e-07
4.72899e-06
1.9719e-07
1.90391e-07
4.73224e-06
4.96141e-06
-1.26553e-07
4.97542e-06
8.40448e-08
4.96079e-06
-2.1027e-07
4.95538e-06
-1.85047e-07
4.94821e-06
-5.52042e-08
4.96048e-06
1.16105e-07
4.9797e-06
2.71063e-07
4.98432e-06
6.61248e-08
4.98058e-06
-1.18622e-07
4.9691e-06
-1.35608e-07
4.95587e-06
-1.67302e-07
4.94697e-06
-1.40046e-07
4.94074e-06
-1.76434e-08
4.9318e-06
2.57561e-08
4.93418e-06
8.6487e-08
4.94023e-06
1.66964e-07
4.94188e-06
1.80798e-07
4.94726e-06
1.80097e-07
4.95488e-06
1.89574e-07
1.86112e-07
4.95916e-06
5.19883e-06
-1.19071e-07
5.21247e-06
7.04142e-08
5.19827e-06
-1.9607e-07
5.19311e-06
-1.79895e-07
5.18603e-06
-4.81214e-08
5.19798e-06
1.0416e-07
5.21706e-06
2.5198e-07
5.22123e-06
6.19489e-08
5.21768e-06
-1.15068e-07
5.20675e-06
-1.24683e-07
5.19282e-06
-1.53363e-07
5.18378e-06
-1.31006e-07
5.17774e-06
-1.1607e-08
5.16879e-06
3.47094e-08
5.17051e-06
8.47598e-08
5.17721e-06
1.60273e-07
5.17929e-06
1.78711e-07
5.184e-06
1.75394e-07
5.19148e-06
1.82087e-07
1.80897e-07
5.1967e-06
5.44762e-06
-1.115e-07
5.46089e-06
5.71442e-08
5.44699e-06
-1.82175e-07
5.44233e-06
-1.75236e-07
5.43534e-06
-4.11287e-08
5.44673e-06
9.27694e-08
5.46591e-06
2.32801e-07
5.46938e-06
5.84767e-08
5.46588e-06
-1.11569e-07
5.45569e-06
-1.14488e-07
5.44099e-06
-1.38662e-07
5.43155e-06
-1.21574e-07
5.42595e-06
-6.0075e-09
5.41732e-06
4.33455e-08
5.41831e-06
8.37715e-08
5.4255e-06
1.53084e-07
5.42817e-06
1.7604e-07
5.43226e-06
1.713e-07
5.43942e-06
1.74932e-07
1.74991e-07
5.44532e-06
5.7083e-06
-1.03845e-07
5.72126e-06
4.41924e-08
5.70753e-06
-1.68454e-07
5.70353e-06
-1.71235e-07
5.69681e-06
-3.44015e-08
5.70724e-06
8.23351e-08
5.72672e-06
2.13325e-07
5.72937e-06
5.58206e-08
5.72559e-06
-1.07788e-07
5.71623e-06
-1.05123e-07
5.70089e-06
-1.23321e-07
5.69086e-06
-1.11546e-07
5.68595e-06
-1.09574e-09
5.67797e-06
5.13237e-08
5.67817e-06
8.35714e-08
5.68562e-06
1.45628e-07
5.68901e-06
1.72654e-07
5.6926e-06
1.67715e-07
5.6993e-06
1.68229e-07
1.68677e-07
5.70561e-06
5.98146e-06
-9.61119e-08
5.99415e-06
3.14984e-08
5.9805e-06
-1.54804e-07
5.97721e-06
-1.67941e-07
5.9711e-06
-2.82887e-08
5.98004e-06
7.33897e-08
5.99986e-06
1.93508e-07
6.00183e-06
5.38518e-08
5.99721e-06
-1.03169e-07
5.9886e-06
-9.65154e-08
5.97303e-06
-1.07748e-07
5.96234e-06
-1.00859e-07
5.95832e-06
2.92981e-09
5.95127e-06
5.83724e-08
5.95073e-06
8.41051e-08
5.95814e-06
1.38221e-07
5.96235e-06
1.6845e-07
5.96556e-06
1.64497e-07
5.97173e-06
1.62061e-07
1.62198e-07
5.97821e-06
6.26769e-06
-8.8311e-08
6.28017e-06
1.90132e-08
6.26656e-06
-1.41193e-07
6.26377e-06
-1.65153e-07
6.25885e-06
-2.33615e-08
6.26585e-06
6.6381e-08
6.28578e-06
1.73579e-07
6.28733e-06
5.23071e-08
6.28127e-06
-9.71064e-08
6.27321e-06
-8.84594e-08
6.25803e-06
-9.257e-08
6.24689e-06
-8.97151e-08
6.24366e-06
6.15721e-09
6.23776e-06
6.427e-08
6.23658e-06
8.52849e-08
6.24369e-06
1.31111e-07
6.24872e-06
1.63421e-07
6.25175e-06
1.61465e-07
6.25733e-06
1.56482e-07
1.55741e-07
6.26379e-06
6.56762e-06
-8.04584e-08
6.57991e-06
6.71598e-09
6.5664e-06
-1.27678e-07
6.56371e-06
-1.62461e-07
6.56061e-06
-2.02695e-08
6.56552e-06
6.148e-08
6.58498e-06
1.54114e-07
6.58654e-06
5.07465e-08
6.57867e-06
-8.92352e-08
6.57098e-06
-8.07735e-08
6.55684e-06
-7.84245e-08
6.54542e-06
-7.83005e-08
6.54268e-06
8.90309e-09
6.53798e-06
6.89693e-08
6.53634e-06
8.69226e-08
6.54293e-06
1.24521e-07
6.54872e-06
1.5763e-07
6.55177e-06
1.58417e-07
6.55674e-06
1.51515e-07
1.49451e-07
6.56303e-06
6.88191e-06
-7.25816e-08
6.89399e-06
-5.36253e-09
6.88073e-06
-1.14418e-07
6.87765e-06
-1.59383e-07
6.87695e-06
-1.95608e-08
6.87991e-06
5.85149e-08
6.89817e-06
1.35851e-07
6.90017e-06
4.8755e-08
6.89064e-06
-7.97095e-08
6.88299e-06
-7.3122e-08
6.87016e-06
-6.55963e-08
6.85871e-06
-6.68484e-08
6.85608e-06
1.15304e-08
6.85252e-06
7.25301e-08
6.85063e-06
8.88145e-08
6.85654e-06
1.18607e-07
6.86297e-06
1.512e-07
6.86623e-06
1.55155e-07
6.87062e-06
1.47133e-07
1.43455e-07
6.87661e-06
7.21128e-06
-6.47225e-08
7.22305e-06
-1.71354e-08
7.21028e-06
-1.01649e-07
7.20632e-06
-1.55421e-07
7.20831e-06
-2.15528e-08
7.20984e-06
5.69825e-08
7.22617e-06
1.1952e-07
7.22888e-06
4.6052e-08
7.21812e-06
-6.89523e-08
7.21001e-06
-6.50134e-08
7.19848e-06
-5.40646e-08
7.18732e-06
-5.56847e-08
7.18464e-06
1.42037e-08
7.18206e-06
7.51172e-08
7.18009e-06
9.07768e-08
7.18524e-06
1.13465e-07
7.19213e-06
1.44309e-07
7.19579e-06
1.51491e-07
7.19967e-06
1.43254e-07
1.37867e-07
7.20526e-06
7.55644e-06
-5.69412e-08
7.56776e-06
-2.84538e-08
7.55578e-06
-8.96624e-08
7.55046e-06
-1.50107e-07
7.55499e-06
-2.60854e-08
7.55607e-06
5.59072e-08
7.56989e-06
1.05702e-07
7.5732e-06
4.27427e-08
7.56186e-06
-5.76146e-08
7.55294e-06
-5.60964e-08
7.5424e-06
-4.3524e-08
7.53185e-06
-4.51312e-08
7.5291e-06
1.6949e-08
7.52733e-06
7.68889e-08
7.52544e-06
9.26658e-08
7.52975e-06
1.09154e-07
7.5369e-06
1.37163e-07
7.54111e-06
1.47285e-07
7.54463e-06
1.39729e-07
1.32786e-07
7.54971e-06
7.91819e-06
-4.93174e-08
7.92885e-06
-3.91131e-08
7.91801e-06
-7.88253e-08
7.91091e-06
-1.43005e-07
7.91756e-06
-3.27325e-08
7.91912e-06
5.43468e-08
7.93018e-06
9.46368e-08
7.93378e-06
3.91474e-08
7.92242e-06
-4.62598e-08
7.91264e-06
-4.63174e-08
7.90273e-06
-3.36133e-08
7.89293e-06
-3.53335e-08
7.89019e-06
1.96975e-08
7.88912e-06
7.79506e-08
7.88742e-06
9.43672e-08
7.89089e-06
1.05686e-07
7.89805e-06
1.30001e-07
7.90287e-06
1.42468e-07
7.90624e-06
1.36353e-07
1.2825e-07
7.91078e-06
8.29731e-06
-4.19499e-08
8.30706e-06
-4.88546e-08
8.29775e-06
-6.95238e-08
8.28852e-06
-1.3377e-07
8.29663e-06
-4.08429e-08
8.29948e-06
5.14967e-08
8.30772e-06
8.63932e-08
8.31115e-06
3.57172e-08
8.30037e-06
-3.54753e-08
8.28999e-06
-3.59408e-08
8.28039e-06
-2.40114e-08
8.27123e-06
-2.61781e-08
8.26864e-06
2.22915e-08
8.26821e-06
7.8378e-08
8.26681e-06
9.57676e-08
8.26947e-06
1.0303e-07
8.2764e-06
1.23067e-07
8.28182e-06
1.37048e-07
8.28526e-06
1.32919e-07
1.24195e-07
8.28931e-06
8.69467e-06
-3.49572e-08
8.7032e-06
-5.73831e-08
8.69574e-06
-6.20642e-08
8.6842e-06
-1.22236e-07
8.69283e-06
-4.94648e-08
8.69743e-06
4.68939e-08
8.70295e-06
8.0877e-08
8.70565e-06
3.30128e-08
8.69629e-06
-2.61122e-08
8.68587e-06
-2.55272e-08
8.67631e-06
-1.4444e-08
8.6676e-06
-1.74681e-08
8.66523e-06
2.46544e-08
8.66541e-06
7.8201e-08
8.66443e-06
9.67512e-08
8.66637e-06
1.01089e-07
8.67283e-06
1.16603e-07
8.67877e-06
1.31113e-07
8.68242e-06
1.29263e-07
1.2047e-07
8.68615e-06
9.11113e-06
-2.84668e-08
9.11816e-06
-6.4417e-08
9.11273e-06
-5.66305e-08
9.09906e-06
-1.08569e-07
9.10666e-06
-5.70609e-08
9.11278e-06
4.07712e-08
9.1158e-06
7.78583e-08
9.11786e-06
3.09551e-08
9.1108e-06
-1.90597e-08
9.10107e-06
-1.57967e-08
9.09147e-06
-4.84389e-09
9.08295e-06
-8.94677e-09
9.08077e-06
2.68329e-08
9.08155e-06
7.74213e-08
9.08109e-06
9.72166e-08
9.08248e-06
9.97022e-08
9.08827e-06
1.10809e-07
9.09456e-06
1.24818e-07
9.09854e-06
1.25285e-07
1.16901e-07
9.10211e-06
9.5476e-06
-2.26096e-08
9.55289e-06
-6.97022e-08
9.54957e-06
-5.33084e-08
9.53421e-06
-9.32109e-08
9.53908e-06
-6.19376e-08
9.54624e-06
3.36185e-08
9.54817e-06
7.59221e-08
9.5494e-06
2.97299e-08
9.54464e-06
-1.42992e-08
9.53632e-06
-7.47502e-09
9.52687e-06
4.60377e-09
9.51833e-06
-4.04249e-10
9.51621e-06
2.89507e-08
9.51752e-06
7.6112e-08
9.51766e-06
9.70699e-08
9.5187e-06
9.86696e-08
9.5237e-06
1.05807e-07
9.53015e-06
1.18365e-07
9.5345e-06
1.20932e-07
1.13369e-07
9.53804e-06
1.0005e-05
-1.75016e-08
1.00084e-05
-7.30403e-08
1.00071e-05
-5.20203e-08
9.99087e-06
-7.70081e-08
9.99193e-06
-6.29984e-08
1.00007e-05
2.48098e-08
1.00029e-05
7.37967e-08
1.00024e-05
3.02436e-08
9.99879e-06
-1.07375e-08
9.99228e-06
-9.6633e-10
9.98338e-06
1.35121e-08
9.97483e-06
8.14526e-09
9.97251e-06
3.12673e-08
9.97426e-06
7.43636e-08
9.97507e-06
9.62633e-08
9.97596e-06
9.77774e-08
9.98014e-06
1.01628e-07
9.98652e-06
1.11983e-07
9.99126e-06
1.16187e-07
1.09824e-07
9.99481e-06
1.04844e-05
-1.32361e-08
1.04856e-05
-7.42958e-08
1.04861e-05
-5.25217e-08
1.04702e-05
-6.10408e-08
1.04674e-05
-6.02387e-08
1.04773e-05
1.49416e-08
1.04805e-05
7.05698e-08
1.04782e-05
3.25807e-08
1.04745e-05
-7.10007e-09
1.04697e-05
3.83106e-09
1.04619e-05
2.133e-08
1.04535e-05
1.65809e-08
1.04508e-05
3.3953e-08
1.04528e-05
7.23568e-08
1.04542e-05
9.4812e-08
1.04552e-05
9.68074e-08
1.04586e-05
9.82145e-08
1.04647e-05
1.05914e-07
1.04698e-05
1.11061e-07
1.06242e-07
1.04734e-05
1.09867e-05
-9.86989e-09
1.09858e-05
-7.34014e-08
1.09877e-05
-5.4417e-08
1.0973e-05
-4.64184e-08
1.09668e-05
-5.40507e-08
1.09764e-05
5.36867e-09
1.09814e-05
6.55841e-08
1.09779e-05
3.60979e-08
1.09732e-05
-2.45309e-09
1.09697e-05
7.35572e-09
1.09633e-05
2.76994e-08
1.09553e-05
2.46614e-08
1.09522e-05
3.70218e-08
1.09542e-05
7.03459e-08
1.09562e-05
9.27908e-08
1.09575e-05
9.5577e-08
1.09603e-05
9.54005e-08
1.09658e-05
1.00389e-07
1.09712e-05
1.05615e-07
1.02562e-07
1.09749e-05
1.15129e-05
-7.40688e-09
1.15099e-05
-7.04211e-08
1.15127e-05
-5.71779e-08
1.15003e-05
-3.40101e-08
1.14913e-05
-4.51063e-08
1.14992e-05
-2.5416e-09
1.15061e-05
5.86763e-08
1.15024e-05
3.98494e-08
1.14964e-05
3.50217e-09
1.14934e-05
1.03766e-08
1.14886e-05
3.25476e-08
1.14813e-05
3.19645e-08
1.14778e-05
4.0455e-08
1.14797e-05
6.84901e-08
1.14821e-05
9.03446e-08
1.14837e-05
9.40045e-08
1.14862e-05
9.29496e-08
1.1491e-05
9.55721e-08
1.14966e-05
1.00024e-07
9.86576e-08
1.15005e-05
1.20642e-05
-5.79186e-09
1.20593e-05
-6.5561e-08
1.20623e-05
-6.01568e-08
1.20527e-05
-2.44212e-08
1.20419e-05
-3.43048e-08
1.20471e-05
-7.69195e-09
1.20555e-05
5.02931e-08
1.20525e-05
4.27793e-08
1.20455e-05
1.05304e-08
1.20422e-05
1.36899e-08
1.20387e-05
3.60228e-08
1.20325e-05
3.81887e-08
1.20289e-05
4.40938e-08
1.20304e-05
6.69214e-08
1.20332e-05
8.76111e-08
1.20351e-05
9.2102e-08
1.20374e-05
9.06309e-08
1.20415e-05
9.14463e-08
1.2047e-05
9.45644e-08
9.4393e-08
1.20512e-05
1.26417e-05
-4.90388e-09
1.26353e-05
-5.9205e-08
1.26377e-05
-6.25455e-08
1.26312e-05
-1.789e-08
1.26196e-05
-2.27249e-08
1.26215e-05
-9.5903e-09
1.26304e-05
4.14062e-08
1.26291e-05
4.40633e-08
1.26216e-05
1.80427e-08
1.26176e-05
1.77424e-08
1.2615e-05
3.85639e-08
1.261e-05
4.32239e-08
1.26065e-05
4.76076e-08
1.26076e-05
6.57455e-08
1.26106e-05
8.47022e-08
1.26127e-05
8.99143e-08
1.26151e-05
8.83233e-08
1.26187e-05
8.78478e-08
1.26237e-05
8.95249e-08
8.97658e-08
1.26283e-05
1.32466e-05
-4.56372e-09
1.32393e-05
-5.19264e-08
1.32402e-05
-6.34452e-08
1.32366e-05
-1.42522e-08
1.32254e-05
-1.15764e-08
1.32241e-05
-8.30147e-09
1.32323e-05
3.32072e-08
1.3233e-05
4.33888e-08
1.32259e-05
2.51861e-08
1.3221e-05
2.25974e-08
1.32188e-05
4.07695e-08
1.3215e-05
4.70713e-08
1.32118e-05
5.07771e-08
1.32127e-05
6.48858e-08
1.32156e-05
8.17719e-08
1.3218e-05
8.74581e-08
1.32204e-05
8.59815e-08
1.32236e-05
8.45855e-08
1.32281e-05
8.50404e-08
8.49775e-08
1.32329e-05
1.38802e-05
-4.55614e-09
1.38725e-05
-4.42889e-08
1.38712e-05
-6.21617e-08
1.387e-05
-1.30005e-08
1.38603e-05
-1.93439e-09
1.38565e-05
-4.46142e-09
1.38629e-05
2.68263e-08
1.38653e-05
4.10149e-08
1.38594e-05
3.1083e-08
1.38539e-05
2.8066e-08
1.38516e-05
4.30437e-08
1.38487e-05
4.99557e-08
1.3846e-05
5.34765e-08
1.38467e-05
6.42012e-08
1.38496e-05
7.8904e-08
1.38523e-05
8.47871e-08
1.38547e-05
8.35679e-08
1.38577e-05
8.15265e-08
1.38617e-05
8.10675e-08
8.03267e-08
1.38664e-05
1.45438e-05
-4.65934e-09
1.45362e-05
-3.6694e-08
1.45326e-05
-5.85486e-08
1.45329e-05
-1.33537e-08
1.45255e-05
5.52865e-09
1.452e-05
9.86059e-10
1.45239e-05
2.29041e-08
1.45272e-05
3.77489e-08
1.4523e-05
3.52298e-08
1.45176e-05
3.35595e-08
1.4515e-05
4.56089e-08
1.45127e-05
5.22278e-08
1.45106e-05
5.56211e-08
1.45111e-05
6.3622e-08
1.4514e-05
7.6072e-08
1.45168e-05
8.19806e-08
1.45193e-05
8.10676e-08
1.45222e-05
7.85793e-08
1.45258e-05
7.74765e-08
7.60375e-08
1.45301e-05
1.52389e-05
-4.68363e-09
1.52318e-05
-2.96172e-08
1.52262e-05
-5.28859e-08
1.5227e-05
-1.4223e-08
1.5222e-05
1.05596e-08
1.52159e-05
7.09224e-09
1.52173e-05
2.14993e-08
1.52204e-05
3.46128e-08
1.52181e-05
3.75886e-08
1.52133e-05
3.83336e-08
1.52104e-05
4.85141e-08
1.52085e-05
5.41766e-08
1.52068e-05
5.72667e-08
1.52073e-05
6.31104e-08
1.52101e-05
7.32663e-08
1.52131e-05
7.90121e-08
1.52156e-05
7.85249e-08
1.52185e-05
7.56784e-08
1.52219e-05
7.41088e-08
7.21821e-08
1.52258e-05
1.59671e-05
-4.4939e-09
1.59609e-05
-2.34015e-08
1.59537e-05
-4.5708e-08
1.59542e-05
-1.46321e-08
1.59514e-05
1.33615e-08
1.59455e-05
1.29579e-08
1.59447e-05
2.22887e-08
1.59468e-05
3.2471e-08
1.59459e-05
3.85232e-08
1.59423e-05
4.19459e-08
1.59394e-05
5.13992e-08
1.59376e-05
5.60288e-08
1.59363e-05
5.85421e-08
1.59368e-05
6.26093e-08
1.59394e-05
7.06053e-08
1.59426e-05
7.58138e-08
1.59453e-05
7.59138e-08
1.59481e-05
7.28596e-08
1.59514e-05
7.08167e-08
6.87056e-08
1.59548e-05
1.67301e-05
-4.02865e-09
1.67249e-05
-1.81204e-08
1.67169e-05
-3.77115e-08
1.67162e-05
-1.39575e-08
1.6715e-05
1.45332e-08
1.671e-05
1.79478e-08
1.67077e-05
2.46358e-08
1.67084e-05
3.17328e-08
1.67082e-05
3.87413e-08
1.67058e-05
4.43154e-08
1.67035e-05
5.3764e-08
1.67017e-05
5.78368e-08
1.67006e-05
5.96049e-08
1.67011e-05
6.20761e-08
1.67036e-05
6.81671e-08
1.67069e-05
7.24854e-08
1.67097e-05
7.30697e-08
1.67124e-05
7.01739e-08
1.67157e-05
6.75566e-08
6.54549e-08
1.67189e-05
1.75296e-05
-3.29829e-09
1.75253e-05
-1.37917e-08
1.75171e-05
-2.95263e-08
1.75151e-05
-1.19141e-08
1.75147e-05
1.48904e-08
1.75109e-05
2.17833e-08
1.75077e-05
2.77753e-08
1.7507e-05
3.24271e-08
1.75068e-05
3.90029e-08
1.75055e-05
4.55668e-08
1.7504e-05
5.53389e-08
1.75024e-05
5.93898e-08
1.75015e-05
6.05526e-08
1.7502e-05
6.15684e-08
1.75042e-05
6.59016e-08
1.75075e-05
6.92549e-08
1.75106e-05
6.99144e-08
1.75133e-05
6.75108e-08
1.75164e-05
6.44141e-08
6.22527e-08
1.75196e-05
1.83674e-05
-2.35356e-09
1.83638e-05
-1.01731e-08
1.8356e-05
-2.17186e-08
1.83527e-05
-8.61813e-09
1.83524e-05
1.5194e-08
1.83497e-05
2.45061e-08
1.83464e-05
3.10342e-08
1.83445e-05
3.42794e-08
1.83437e-05
3.9795e-08
1.83432e-05
4.61311e-08
1.83424e-05
5.60979e-08
1.83414e-05
6.04055e-08
1.83406e-05
6.13406e-08
1.8341e-05
6.11605e-08
1.83432e-05
6.37744e-08
1.83462e-05
6.61961e-08
1.83495e-05
6.66214e-08
1.83524e-05
6.46616e-08
1.83553e-05
6.14501e-08
5.90253e-08
1.83585e-05
1.92453e-05