/*--------------------------------*- C++ -*----------------------------------*\
| =========                 |                                                 |
| \\      /  F ield         | OpenFOAM: The Open Source CFD Toolbox           |
|  \\    /   O peration     | Version:  2506                                  |
|   \\  /    A nd           | Website:  www.openfoam.com                      |
|    \\/     M anipulation  |                                                 |
\*---------------------------------------------------------------------------*/
FoamFile
{
    version     2.0;
    format      ascii;
    arch        "LSB;label=32;scalar=64";
    class       surfaceScalarField;
    location    "9.65";
    object      phi;
}
// * * * * * * * * * * * * * * * * * * * * * * * * * * * * * * * * * * * * * //

dimensions      [0 3 -1 0 0 0 0];

oriented        oriented;

internalField   nonuniform List<scalar> 
19000
(
1.15743e-06
7.72747e-08
1.15606e-06
-8.38719e-07
1.16895e-06
5.57453e-07
1.14804e-06
-5.1102e-07
1.16747e-06
2.01002e-06
1.0952e-06
-1.15837e-06
1.14996e-06
9.74329e-07
1.14261e-06
-9.56632e-07
1.14345e-06
-1.21442e-06
1.19671e-06
-4.62507e-08
1.18444e-06
2.84268e-08
1.19445e-06
5.52154e-07
1.19958e-06
8.90513e-07
1.16558e-06
1.29797e-07
1.17942e-06
1.06852e-06
1.11627e-06
-1.38165e-07
1.14004e-06
6.88079e-07
1.08931e-06
-2.21654e-07
1.11104e-06
2.66217e-07
-4.43151e-07
1.01632e-06
1.21368e-06
8.78563e-08
1.21212e-06
-8.37157e-07
1.22364e-06
5.45934e-07
1.20608e-06
-4.93461e-07
1.21931e-06
1.99678e-06
1.15132e-06
-1.09038e-06
1.19404e-06
9.3161e-07
1.19226e-06
-9.54849e-07
1.19517e-06
-1.21733e-06
1.25543e-06
-1.06509e-07
1.2397e-06
4.41608e-08
1.25211e-06
5.39742e-07
1.25513e-06
8.87493e-07
1.22652e-06
1.58405e-07
1.22599e-06
1.06905e-06
1.18417e-06
-9.63473e-08
1.18294e-06
6.89316e-07
1.16694e-06
-2.05662e-07
1.16139e-06
2.71768e-07
-4.0345e-07
1.12169e-06
1.27324e-06
9.73955e-08
1.27089e-06
-8.34802e-07
1.28314e-06
5.3368e-07
1.26575e-06
-4.76063e-07
1.27674e-06
1.98579e-06
1.21425e-06
-1.02789e-06
1.24505e-06
9.00814e-07
1.25265e-06
-9.62445e-07
1.25323e-06
-1.21791e-06
1.3089e-06
-1.6218e-07
1.30012e-06
5.29442e-08
1.30952e-06
5.30338e-07
1.31304e-06
8.8397e-07
1.28649e-06
1.84956e-07
1.28583e-06
1.06971e-06
1.25254e-06
-6.30629e-08
1.2572e-06
6.84658e-07
1.24474e-06
-1.93204e-07
1.25406e-06
2.62453e-07
-3.65372e-07
1.21598e-06
1.33602e-06
1.0548e-07
1.33293e-06
-8.31714e-07
1.34622e-06
5.20386e-07
1.32952e-06
-4.59361e-07
1.33847e-06
1.97684e-06
1.28407e-06
-9.73491e-07
1.30264e-06
8.82243e-07
1.31776e-06
-9.77563e-07
1.31373e-06
-1.21388e-06
1.36033e-06
-2.08783e-07
1.36231e-06
5.09618e-08
1.36629e-06
5.26361e-07
1.36996e-06
8.80304e-07
1.34585e-06
2.09068e-07
1.34668e-06
1.06887e-06
1.31976e-06
-3.61452e-08
1.32997e-06
6.74454e-07
1.31503e-06
-1.78269e-07
1.32943e-06
2.48053e-07
-3.20145e-07
1.28421e-06
1.40195e-06
1.11885e-07
1.39825e-06
-8.28012e-07
1.41223e-06
5.06402e-07
1.39661e-06
-4.4374e-07
1.4046e-06
1.96885e-06
1.35894e-06
-9.27835e-07
1.36871e-06
8.72481e-07
1.38476e-06
-9.93619e-07
1.37736e-06
-1.20648e-06
1.41441e-06
-2.45833e-07
1.42565e-06
3.97275e-08
1.42647e-06
5.25541e-07
1.42967e-06
8.77104e-07
1.40749e-06
2.31247e-07
1.41282e-06
1.06354e-06
1.39004e-06
-1.33625e-08
1.40582e-06
6.58672e-07
1.38775e-06
-1.60192e-07
1.40486e-06
2.30942e-07
-2.72138e-07
1.35685e-06
1.4709e-06
1.16658e-07
1.46668e-06
-8.23784e-07
1.48029e-06
4.92788e-07
1.46601e-06
-4.29465e-07
1.47466e-06
1.9602e-06
1.43722e-06
-8.90397e-07
1.44263e-06
8.67075e-07
1.45284e-06
-1.00384e-06
1.44396e-06
-1.19759e-06
1.47401e-06
-2.75888e-07
1.4906e-06
2.31413e-08
1.49196e-06
5.24179e-07
1.49579e-06
8.73279e-07
1.47582e-06
2.51213e-07
1.48511e-06
1.05425e-06
1.46493e-06
6.80977e-09
1.48432e-06
6.39292e-07
1.46251e-06
-1.38383e-07
1.4809e-06
2.12546e-07
-2.22705e-07
1.43147e-06
1.5427e-06
1.20169e-07
1.53794e-06
-8.19015e-07
1.55e-06
4.80727e-07
1.5374e-06
-4.16864e-07
1.54828e-06
1.94932e-06
1.51804e-06
-8.60158e-07
1.52308e-06
8.62035e-07
1.52337e-06
-1.00413e-06
1.513e-06
-1.18721e-06
1.53873e-06
-3.0162e-07
1.55798e-06
3.89056e-09
1.56248e-06
5.19676e-07
1.56825e-06
8.67512e-07
1.55095e-06
2.68511e-07
1.56335e-06
1.04184e-06
1.54352e-06
2.66439e-08
1.56557e-06
6.1724e-07
1.53994e-06
-1.12752e-07
1.55902e-06
1.9347e-07
-1.73055e-07
1.50937e-06
1.6173e-06
1.22999e-07
1.61186e-06
-8.13576e-07
1.62171e-06
4.70876e-07
1.61129e-06
-4.06442e-07
1.62548e-06
1.93513e-06
1.60116e-06
-8.35834e-07
1.60871e-06
8.54477e-07
1.59784e-06
-9.93253e-07
1.58456e-06
-1.17394e-06
1.60715e-06
-3.24208e-07
1.62799e-06
-1.69568e-08
1.63672e-06
5.10955e-07
1.64488e-06
8.59344e-07
1.63028e-06
2.83111e-07
1.64541e-06
1.02672e-06
1.62443e-06
4.76231e-08
1.64865e-06
5.93027e-07
1.61967e-06
-8.37801e-08
1.63902e-06
1.74122e-07
-1.24192e-07
1.59016e-06
1.69487e-06
1.25703e-07
1.68858e-06
-8.07288e-07
1.6963e-06
4.63154e-07
1.68862e-06
-3.98755e-07
1.7065e-06
1.91724e-06
1.68647e-06
-8.15806e-07
1.69822e-06
8.42727e-07
1.67706e-06
-9.72084e-07
1.65956e-06
-1.15644e-06
1.67862e-06
-3.4327e-07
1.70027e-06
-3.86114e-08
1.713e-06
4.98232e-07
1.72344e-06
8.48899e-07
1.7112e-06
2.9535e-07
1.72924e-06
1.00868e-06
1.70685e-06
7.00105e-08
1.73321e-06
5.66672e-07
1.70176e-06
-5.23343e-08
1.72102e-06
1.54858e-07
-7.7088e-08
1.67392e-06
1.7758e-06
1.2863e-07
1.76853e-06
-8.00024e-07
1.7747e-06
4.56985e-07
1.77007e-06
-3.94126e-07
1.79158e-06
1.89573e-06
1.77394e-06
-7.98164e-07
1.79042e-06
8.2625e-07
1.76108e-06
-9.42743e-07
1.73908e-06
-1.13444e-06
1.75343e-06
-3.57617e-07
1.77445e-06
-5.9633e-08
1.78997e-06
4.82718e-07
1.80254e-06
8.36328e-07
1.79246e-06
3.05424e-07
1.81403e-06
9.87107e-07
1.79089e-06
9.31537e-08
1.81951e-06
5.38057e-07
1.78648e-06
-1.93041e-08
1.80513e-06
1.362e-07
-3.27003e-08
1.76075e-06
1.86053e-06
1.31853e-07
1.85226e-06
-7.91761e-07
1.85753e-06
4.51719e-07
1.85586e-06
-3.92458e-07
1.8808e-06
1.87079e-06
1.86363e-06
-7.81e-07
1.88448e-06
8.05399e-07
1.84949e-06
-9.07746e-07
1.82384e-06
-1.10879e-06
1.83245e-06
-3.66227e-07
1.85094e-06
-7.81164e-08
1.86754e-06
4.66115e-07
1.88239e-06
8.21474e-07
1.87465e-06
3.13163e-07
1.90044e-06
9.6132e-07
1.87743e-06
1.16167e-07
1.90817e-06
5.07319e-07
1.87426e-06
1.46028e-08
1.89147e-06
1.18994e-07
8.01218e-09
1.85075e-06
1.94948e-06
1.35211e-07
1.94029e-06
-7.8257e-07
1.94509e-06
4.46921e-07
1.94585e-06
-3.93215e-07
1.97404e-06
1.84259e-06
1.95584e-06
-7.62797e-07
1.9802e-06
7.81042e-07
1.94176e-06
-8.69309e-07
1.91401e-06
-1.08105e-06
1.91677e-06
-3.68986e-07
1.9313e-06
-9.26416e-08
1.94749e-06
4.49922e-07
1.96501e-06
8.03958e-07
1.95988e-06
3.18286e-07
1.99006e-06
9.31142e-07
1.96759e-06
1.3864e-07
1.99973e-06
4.75175e-07
1.96549e-06
4.88425e-08
1.98013e-06
1.04356e-07
4.41473e-08
1.944e-06
2.043e-06
1.38402e-07
2.03299e-06
-7.7256e-07
2.03747e-06
4.42434e-07
2.03977e-06
-3.95507e-07
2.07112e-06
1.81124e-06
2.05102e-06
-7.42698e-07
2.07793e-06
7.54132e-07
2.03766e-06
-8.29043e-07
2.00943e-06
-1.05281e-06
2.00722e-06
-3.66778e-07
2.01772e-06
-1.03145e-07
2.03281e-06
4.34837e-07
2.05317e-06
7.83592e-07
2.05056e-06
3.20897e-07
2.08439e-06
8.97315e-07
2.06209e-06
1.60934e-07
2.09437e-06
4.42895e-07
2.06032e-06
8.28989e-08
2.07132e-06
9.33485e-08
7.4964e-08
2.04051e-06
2.1413e-06
1.411e-07
2.13057e-06
-7.61824e-07
2.13473e-06
4.38269e-07
2.13743e-06
-3.98205e-07
2.1718e-06
1.77687e-06
2.1496e-06
-7.205e-07
2.17832e-06
7.25415e-07
2.13735e-06
-7.88074e-07
2.10979e-06
-1.02525e-06
2.10387e-06
-3.60859e-07
2.11165e-06
-1.10923e-07
2.12583e-06
4.20655e-07
2.14864e-06
7.60786e-07
2.1478e-06
3.21736e-07
2.18379e-06
8.61321e-07
2.1609e-06
1.83827e-07
2.19186e-06
4.11941e-07
2.15873e-06
1.16024e-07
2.16542e-06
8.66623e-08
9.9948e-08
2.14043e-06
2.24452e-06
1.43065e-07
2.23311e-06
-7.50413e-07
2.23693e-06
4.34449e-07
2.23885e-06
-4.00121e-07
2.27605e-06
1.73967e-06
2.25197e-06
-6.96427e-07
2.28207e-06
6.95319e-07
2.24128e-06
-7.47283e-07
2.21491e-06
-9.98885e-07
2.20607e-06
-3.52015e-07
2.21283e-06
-1.17684e-07
2.22675e-06
4.06735e-07
2.25098e-06
7.36554e-07
2.2508e-06
3.21913e-07
2.2874e-06
8.24722e-07
2.26347e-06
2.07759e-07
2.292e-06
3.8341e-07
2.26082e-06
1.47205e-07
2.26311e-06
8.4368e-08
1.18924e-07
2.24413e-06
2.35273e-06
1.44213e-07
2.34067e-06
-7.38355e-07
2.3442e-06
4.30917e-07
2.34433e-06
-4.0025e-07
2.38412e-06
1.69989e-06
2.3585e-06
-6.70809e-07
2.3898e-06
6.64018e-07
2.34987e-06
-7.07351e-07
2.32474e-06
-9.73752e-07
2.31296e-06
-3.40236e-07
2.31969e-06
-1.24419e-07
2.33378e-06
3.92649e-07
2.3582e-06
7.1213e-07
2.3578e-06
3.22316e-07
2.39398e-06
7.88545e-07
2.36944e-06
2.32295e-07
2.39508e-06
3.57772e-07
2.36698e-06
1.75305e-07
2.36536e-06
8.59862e-08
1.3216e-07
2.35213e-06
2.46599e-06
1.44621e-07
2.45333e-06
-7.25692e-07
2.4567e-06
4.2754e-07
2.45444e-06
-3.97985e-07
2.49659e-06
1.65773e-06
2.46965e-06
-6.43871e-07
2.50214e-06
6.31529e-07
2.46341e-06
-6.68621e-07
2.43937e-06
-9.49711e-07
2.42423e-06
-3.25093e-07
2.4308e-06
-1.30995e-07
2.44499e-06
3.7846e-07
2.46862e-06
6.88502e-07
2.46774e-06
3.23202e-07
2.50316e-06
7.53124e-07
2.47917e-06
2.56285e-07
2.50199e-06
3.34953e-07
2.47787e-06
1.99423e-07
2.47312e-06
9.07336e-08
1.40331e-07
2.46495e-06
2.58444e-06
1.44471e-07
2.57126e-06
-7.12505e-07
2.57464e-06
4.2416e-07
2.56983e-06
-3.93182e-07
2.61416e-06
1.6134e-06
2.58596e-06
-6.15666e-07
2.61968e-06
5.97811e-07
2.58204e-06
-6.30989e-07
2.55897e-06
-9.26639e-07
2.54025e-06
-3.0637e-07
2.54585e-06
-1.36594e-07
2.5598e-06
3.64506e-07
2.58209e-06
6.66211e-07
2.58105e-06
3.24245e-07
2.61577e-06
7.18401e-07
2.5936e-06
2.78459e-07
2.6139e-06
3.1465e-07
2.59417e-06
2.19151e-07
2.58706e-06
9.78435e-08
1.44353e-07
2.58304e-06
2.70831e-06
1.43987e-07
2.69472e-06
-6.98914e-07
2.69825e-06
4.20637e-07
2.6911e-06
-3.86041e-07
2.73745e-06
1.56706e-06
2.70792e-06
-5.86137e-07
2.74292e-06
5.6281e-07
2.70593e-06
-5.94e-07
2.68376e-06
-9.0447e-07
2.66177e-06
-2.84382e-07
2.66558e-06
-1.40403e-07
2.6791e-06
3.50986e-07
2.69986e-06
6.45457e-07
2.69924e-06
3.24866e-07
2.73333e-06
6.84309e-07
2.71379e-06
2.97993e-07
2.7319e-06
2.9654e-07
2.71645e-06
2.34601e-07
2.70754e-06
1.06754e-07
1.45168e-07
2.70673e-06
2.83789e-06
1.43369e-07
2.82402e-06
-6.85049e-07
2.8278e-06
4.1686e-07
2.81867e-06
-3.7691e-07
2.86689e-06
1.51883e-06
2.83595e-06
-5.55191e-07
2.87226e-06
5.26501e-07
2.83532e-06
-5.57066e-07
2.81401e-06
-8.83156e-07
2.78951e-06
-2.5988e-07
2.79108e-06
-1.41981e-07
2.80434e-06
3.37733e-07
2.82352e-06
6.26278e-07
2.82378e-06
3.246e-07
2.85721e-06
6.50878e-07
2.84053e-06
3.14676e-07
2.85665e-06
2.80421e-07
2.84511e-06
2.46142e-07
2.83477e-06
1.17092e-07
1.43673e-07
2.83627e-06
2.97349e-06
1.42775e-07
2.95946e-06
-6.71018e-07
2.96358e-06
4.12737e-07
2.9528e-06
-3.66126e-07
3.0028e-06
1.46883e-06
2.97036e-06
-5.22748e-07
3.00795e-06
4.88909e-07
2.97057e-06
-5.19682e-07
2.95001e-06
-8.626e-07
2.92394e-06
-2.33811e-07
2.92315e-06
-1.41193e-07
2.93663e-06
3.24261e-07
2.95424e-06
6.08664e-07
2.95558e-06
3.23262e-07
2.98831e-06
6.18141e-07
2.97419e-06
3.28797e-07
2.98844e-06
2.66172e-07
2.9804e-06
2.54184e-07
2.96889e-06
1.28598e-07
1.40745e-07
2.97182e-06
3.11547e-06
1.42312e-07
3.10134e-06
-6.56893e-07
3.10589e-06
4.08188e-07
3.09371e-06
-3.5394e-07
3.14541e-06
1.41713e-06
3.11143e-06
-4.88763e-07
3.15023e-06
4.50107e-07
3.11207e-06
-4.8152e-07
3.09209e-06
-8.42623e-07
3.06539e-06
-2.07111e-07
3.06222e-06
-1.38018e-07
3.07651e-06
3.09966e-07
3.09261e-06
5.9257e-07
3.09494e-06
3.2093e-07
3.12703e-06
5.8605e-07
3.11496e-06
3.40865e-07
3.12737e-06
2.53758e-07
3.12257e-06
2.58986e-07
3.11005e-06
1.41117e-07
1.37202e-07
3.1136e-06
3.26418e-06
1.4204e-07
3.24999e-06
-6.42706e-07
3.25504e-06
4.03146e-07
3.2416e-06
-3.40507e-07
3.29497e-06
1.36376e-06
3.25944e-06
-4.53232e-07
3.29933e-06
4.10215e-07
3.26027e-06
-4.42457e-07
3.2406e-06
-8.2295e-07
3.21412e-06
-1.8064e-07
3.2085e-06
-1.32389e-07
3.22414e-06
2.94317e-07
3.23887e-06
5.77841e-07
3.24187e-06
3.17937e-07
3.27349e-06
5.54431e-07
3.26303e-06
3.51316e-07
3.27347e-06
2.43325e-07
3.27187e-06
2.60583e-07
3.25854e-06
1.54447e-07
1.33928e-07
3.26181e-06
3.41999e-06
1.4198e-07
3.40574e-06
-6.28457e-07
3.41132e-06
3.97564e-07
3.39672e-06
-3.25902e-07
3.45174e-06
1.30874e-06
3.4147e-06
-4.16194e-07
3.45552e-06
3.69389e-07
3.41561e-06
-4.02543e-07
3.39589e-06
-8.03228e-07
3.37042e-06
-1.55178e-07
3.36219e-06
-1.2415e-07
3.37952e-06
2.76984e-07
3.39319e-06
5.64172e-07
3.39635e-06
3.1477e-07
3.42773e-06
5.23058e-07
3.41864e-06
3.60398e-07
3.42681e-06
2.35161e-07
3.42849e-06
2.58901e-07
3.41469e-06
1.68243e-07
1.31828e-07
3.41679e-06
3.58328e-06
1.42112e-07
3.56895e-06
-6.14125e-07
3.57508e-06
3.91427e-07
3.55932e-06
-3.10136e-07
3.61599e-06
1.25207e-06
3.57752e-06
-3.77732e-07
3.61909e-06
3.27825e-07
3.57853e-06
-3.61988e-07
3.55833e-06
-7.83027e-07
3.5346e-06
-1.31448e-07
3.52354e-06
-1.13087e-07
3.54266e-06
2.57865e-07
3.55569e-06
5.51139e-07
3.55845e-06
3.1201e-07
3.5898e-06
4.91708e-07
3.5821e-06
3.68101e-07
3.58761e-06
2.29647e-07
3.59249e-06
2.54022e-07
3.57899e-06
1.81743e-07
1.3183e-07
3.57899e-06
3.75443e-06
1.42392e-07
3.73998e-06
-5.9968e-07
3.74666e-06
3.84747e-07
3.7297e-06
-2.93177e-07
3.78802e-06
1.19375e-06
3.74827e-06
-3.37979e-07
3.79033e-06
2.85766e-07
3.74949e-06
-3.21146e-07
3.72831e-06
-7.61852e-07
3.70698e-06
-1.10115e-07
3.6929e-06
-9.90115e-08
3.71365e-06
2.37122e-07
3.72662e-06
5.3817e-07
3.72835e-06
3.10278e-07
3.75977e-06
4.60286e-07
3.75376e-06
3.74109e-07
3.75628e-06
2.27127e-07
3.76397e-06
2.46339e-07
3.75181e-06
1.93895e-07
1.34611e-07
3.74903e-06
3.93382e-06
1.42757e-07
3.91923e-06
-5.85084e-07
3.92643e-06
3.77547e-07
3.90821e-06
-2.74958e-07
3.96817e-06
1.13379e-06
3.92731e-06
-2.97118e-07
3.96955e-06
2.43525e-07
3.92889e-06
-2.80485e-07
3.90621e-06
-7.39173e-07
3.88787e-06
-9.17741e-08
3.87071e-06
-8.18467e-08
3.89262e-06
2.15212e-07
3.9062e-06
5.24583e-07
3.90639e-06
3.10091e-07
3.93773e-06
4.28943e-07
3.93399e-06
3.7785e-07
3.93331e-06
2.27813e-07
3.94305e-06
2.36597e-07
3.93338e-06
2.03566e-07
1.40288e-07
3.9277e-06
4.12187e-06
1.43139e-07
4.10708e-06
-5.70298e-07
4.11479e-06
3.69836e-07
4.09522e-06
-2.55389e-07
4.15678e-06
1.07223e-06
4.11505e-06
-2.55388e-07
4.15707e-06
2.0151e-07
4.11717e-06
-2.4059e-07
4.09242e-06
-7.14422e-07
4.07759e-06
-7.69438e-08
4.05743e-06
-6.16909e-08
4.0798e-06
1.92843e-07
4.09474e-06
5.09647e-07
4.09304e-06
3.11786e-07
4.12389e-06
3.98102e-07
4.12303e-06
3.78708e-07
4.11934e-06
2.31497e-07
4.12994e-06
2.25996e-07
4.12383e-06
2.09678e-07
1.48442e-07
4.11568e-06
4.31897e-06
1.43475e-07
4.30394e-06
-5.55275e-07
4.3122e-06
3.61578e-07
4.29119e-06
-2.34378e-07
4.35423e-06
1.0092e-06
4.31193e-06
-2.13092e-07
4.35321e-06
1.60234e-07
4.31475e-06
-2.0213e-07
4.28734e-06
-6.87018e-07
4.27642e-06
-6.60251e-08
4.25362e-06
-3.88922e-08
4.27554e-06
1.70924e-07
4.29249e-06
4.92699e-07
4.28885e-06
3.15431e-07
4.31848e-06
3.68467e-07
4.32109e-06
3.76105e-07
4.31497e-06
2.37618e-07
4.32509e-06
2.15874e-07
4.32313e-06
2.11634e-07
1.58021e-07
4.31355e-06
4.52553e-06
1.43715e-07
4.51021e-06
-5.39954e-07
4.51912e-06
3.52668e-07
4.49659e-06
-2.11842e-07
4.5609e-06
9.44881e-07
4.51841e-06
-1.70606e-07
4.55833e-06
1.20317e-07
4.52203e-06
-1.65833e-07
4.49144e-06
-6.56424e-07
4.48461e-06
-5.91992e-08
4.45983e-06
-1.41059e-08
4.48028e-06
1.5047e-07
4.49972e-06
4.73266e-07
4.49439e-06
3.2076e-07
4.52189e-06
3.40965e-07
4.52833e-06
3.69663e-07
4.52066e-06
2.45291e-07
4.52913e-06
2.07401e-07
4.5312e-06
2.09561e-07
1.67455e-07
4.52177e-06
4.74201e-06
1.43824e-07
4.72631e-06
-5.24253e-07
4.73604e-06
3.42935e-07
4.71193e-06
-1.87729e-07
4.77722e-06
8.79582e-07
4.73501e-06
-1.28394e-07
4.77285e-06
8.24766e-08
4.73945e-06
-1.32435e-07
4.70524e-06
-6.22206e-07
4.70243e-06
-5.63977e-08
4.67658e-06
1.17475e-08
4.69453e-06
1.32519e-07
4.71665e-06
4.51149e-07
4.71024e-06
3.27166e-07
4.73462e-06
3.16594e-07
4.74489e-06
3.59389e-07
4.73691e-06
2.53272e-07
4.74277e-06
2.01539e-07
4.74825e-06
2.04084e-07
1.75264e-07
4.74044e-06
4.96885e-06
1.43773e-07
4.95266e-06
-5.0806e-07
4.96343e-06
3.32158e-07
4.93775e-06
-1.62049e-07
5.00363e-06
8.13708e-07
4.96225e-06
-8.70168e-08
4.99723e-06
4.74986e-08
4.96742e-06
-1.02631e-07
4.92937e-06
-5.84152e-07
4.93019e-06
-5.72225e-08
4.90437e-06
3.75767e-08
4.91888e-06
1.18003e-07
4.94359e-06
4.26439e-07
4.93699e-06
3.3377e-07
4.95729e-06
2.96295e-07
4.97113e-06
3.45548e-07
4.96404e-06
2.60354e-07
4.96695e-06
1.98629e-07
4.97451e-06
1.96531e-07
1.8016e-07
4.96961e-06
5.20656e-06
1.43533e-07
5.18973e-06
-4.91236e-07
5.20178e-06
3.20113e-07
5.17462e-06
-1.34893e-07
5.24056e-06
7.47765e-07
5.20067e-06
-4.71229e-08
5.23197e-06
1.62032e-08
5.20635e-06
-7.70163e-08
5.16456e-06
-5.42359e-07
5.16824e-06
-6.0907e-08
5.14367e-06
6.21533e-08
5.15398e-06
1.07688e-07
5.18092e-06
3.99502e-07
5.1751e-06
3.39585e-07
5.19079e-06
2.8061e-07
5.20749e-06
3.28849e-07
5.20234e-06
2.65503e-07
5.20254e-06
1.98428e-07
5.21056e-06
1.88507e-07
1.81453e-07
5.20927e-06
5.45565e-06
1.43068e-07
5.43804e-06
-4.7362e-07
5.45153e-06
3.06625e-07
5.4231e-06
-1.06468e-07
5.48852e-06
6.82344e-07
5.45082e-06
-9.42091e-09
5.47764e-06
-1.06169e-08
5.45665e-06
-5.6028e-08
5.41157e-06
-4.97273e-07
5.41706e-06
-6.63971e-08
5.39487e-06
8.43379e-08
5.40062e-06
1.0194e-07
5.42909e-06
3.71031e-07
5.42502e-06
3.43656e-07
5.43614e-06
2.69486e-07
5.45447e-06
3.10522e-07
5.45202e-06
2.67952e-07
5.45022e-06
2.00226e-07
5.45733e-06
1.81403e-07
1.7928e-07
5.4595e-06
5.7167e-06
1.42331e-07
5.69812e-06
-4.55046e-07
5.71314e-06
2.91611e-07
5.68378e-06
-7.71128e-08
5.748e-06
6.18123e-07
5.71324e-06
2.53462e-08
5.73489e-06
-3.22716e-08
5.71871e-06
-3.98491e-08
5.67117e-06
-4.4973e-07
5.67721e-06
-7.24398e-08
5.65837e-06
1.03184e-07
5.65962e-06
1.00686e-07
5.68866e-06
3.41996e-07
5.68714e-06
3.45175e-07
5.69421e-06
2.62411e-07
5.71277e-06
2.91968e-07
5.71337e-06
2.67344e-07
5.71054e-06
2.03063e-07
5.71587e-06
1.76074e-07
1.74596e-07
5.72055e-06
5.99026e-06
1.41262e-07
5.97057e-06
-4.35357e-07
5.9871e-06
2.75081e-07
5.95727e-06
-4.72845e-08
6.01956e-06
5.55835e-07
5.98846e-06
5.64425e-08
6.0044e-06
-4.82069e-08
5.99294e-06
-2.83915e-08
5.94405e-06
-4.00841e-07
5.94941e-06
-7.77979e-08
5.93449e-06
1.18108e-07
5.93177e-06
1.03404e-07
5.96028e-06
3.13481e-07
5.96186e-06
3.43596e-07
5.96561e-06
2.58661e-07
5.98321e-06
2.7437e-07
5.98681e-06
2.63748e-07
5.98388e-06
2.05993e-07
5.98723e-06
1.7272e-07
1.68748e-07
5.99308e-06
6.27696e-06
1.39793e-07
6.25602e-06
-4.14416e-07
6.27398e-06
2.5712e-07
6.24422e-06
-1.75226e-08
6.30381e-06
4.96243e-07
6.27702e-06
8.32265e-08
6.28693e-06
-5.81189e-08
6.27978e-06
-2.12373e-08
6.2308e-06
-3.51861e-07
6.2344e-06
-8.14001e-08
6.22365e-06
1.28861e-07
6.21778e-06
1.09275e-07
6.24469e-06
2.86569e-07
6.24963e-06
3.38659e-07
6.25091e-06
2.57376e-07
6.26667e-06
2.58616e-07
6.27292e-06
2.57498e-07
6.27052e-06
2.08393e-07
6.27237e-06
1.70864e-07
1.63108e-07
6.27801e-06
6.57742e-06
1.37848e-07
6.55512e-06
-3.92116e-07
6.57441e-06
2.3783e-07
6.54525e-06
1.16345e-08
6.6014e-06
4.4009e-07
6.57944e-06
1.05187e-07
6.58334e-06
-6.2012e-08
6.57975e-06
-1.76534e-08
6.53193e-06
-3.04036e-07
6.53301e-06
-8.24812e-08
6.52631e-06
1.3556e-07
6.51826e-06
1.17328e-07
6.54268e-06
2.62141e-07
6.55085e-06
3.30489e-07
6.55066e-06
2.57568e-07
6.56405e-06
2.45227e-07
6.57234e-06
2.49213e-07
6.57094e-06
2.09786e-07
6.57188e-06
1.6993e-07
1.58407e-07
6.57658e-06
6.89229e-06
1.35346e-07
6.86856e-06
-3.6838e-07
6.88909e-06
2.17291e-07
6.861e-06
3.97274e-08
6.91303e-06
3.88066e-07
6.89631e-06
1.21898e-07
6.89451e-06
-6.02056e-08
6.89348e-06
-1.66298e-08
6.84794e-06
-2.58488e-07
6.84605e-06
-8.05939e-08
6.84299e-06
1.38622e-07
6.83376e-06
1.26554e-07
6.85509e-06
2.4081e-07
6.86603e-06
3.19547e-07
6.8654e-06
2.58201e-07
6.87614e-06
2.34486e-07
6.88585e-06
2.39508e-07
6.88568e-06
2.09948e-07
6.88621e-06
1.69402e-07
1.54702e-07
6.88992e-06
7.22227e-06
1.32213e-07
7.19706e-06
-3.43168e-07
7.21872e-06
1.95632e-07
7.19211e-06
6.6331e-08
7.23943e-06
3.40754e-07
7.22818e-06
1.33149e-07
7.22144e-06
-5.34683e-08
7.22165e-06
-1.68417e-08
7.17934e-06
-2.16177e-07
7.17437e-06
-7.56282e-08
7.1743e-06
1.38691e-07
7.16486e-06
1.35996e-07
7.18268e-06
2.22991e-07
7.19578e-06
3.06449e-07
7.19561e-06
2.5837e-07
7.20376e-06
2.26336e-07
7.21416e-06
2.29104e-07
7.2155e-06
2.08611e-07
7.21574e-06
1.69162e-07
1.51601e-07
7.21884e-06
7.56805e-06
1.28384e-07
7.54136e-06
-3.16475e-07
7.56394e-06
1.73052e-07
7.53925e-06
9.10239e-08
7.58136e-06
2.98645e-07
7.57558e-06
1.38921e-07
7.56495e-06
-4.28345e-08
7.56513e-06
-1.70163e-08
7.52663e-06
-1.77685e-07
7.51876e-06
-6.77533e-08
7.52101e-06
1.36442e-07
7.51208e-06
1.44926e-07
7.52623e-06
2.08838e-07
7.54076e-06
2.91917e-07
7.54177e-06
2.57367e-07
7.54767e-06
2.20428e-07
7.55809e-06
2.18687e-07
7.56107e-06
2.05635e-07
7.56113e-06
1.69101e-07
1.48772e-07
7.56396e-06
7.93037e-06
1.23822e-07
7.90217e-06
-2.88271e-07
7.92544e-06
1.49785e-07
7.90311e-06
1.13349e-07
7.93964e-06
2.62116e-07
7.93902e-06
1.3954e-07
7.9257e-06
-2.95127e-08
7.92482e-06
-1.61346e-08
7.89036e-06
-1.43227e-07
7.88001e-06
-5.74028e-08
7.88381e-06
1.32642e-07
7.87601e-06
1.52731e-07
7.88651e-06
1.98336e-07
7.90177e-06
2.76659e-07
7.90438e-06
2.54755e-07
7.90865e-06
2.16156e-07
7.91845e-06
2.08891e-07
7.92305e-06
2.01031e-07
7.92321e-06
1.68943e-07
1.46273e-07
7.92571e-06
8.30997e-06
1.1853e-07
8.28026e-06
-2.58556e-07
8.30383e-06
1.26214e-07
8.28455e-06
1.32627e-07
8.31514e-06
2.31522e-07
8.31888e-06
1.35808e-07
8.30435e-06
-1.49877e-08
8.30172e-06
-1.34991e-08
8.27113e-06
-1.12637e-07
8.2589e-06
-4.51798e-08
8.26341e-06
1.28135e-07
8.25712e-06
1.5902e-07
8.26442e-06
1.91037e-07
8.27953e-06
2.6155e-07
8.28401e-06
2.50269e-07
8.28734e-06
2.1283e-07
8.29617e-06
2.00066e-07
8.30206e-06
1.95136e-07
8.30284e-06
1.68161e-07
1.44337e-07
8.30478e-06
8.70763e-06
1.12566e-07
8.67669e-06
-2.27616e-07
8.69984e-06
1.03055e-07
8.68446e-06
1.48016e-07
8.70875e-06
2.07231e-07
8.71585e-06
1.28702e-07
8.70148e-06
-6.13963e-10
8.69681e-06
-8.83023e-09
8.66961e-06
-8.54385e-08
8.65607e-06
-3.16433e-08
8.66047e-06
1.23743e-07
8.65585e-06
1.6364e-07
8.66069e-06
1.86191e-07
8.675e-06
2.47241e-07
8.6813e-06
2.43972e-07
8.68439e-06
2.09743e-07
8.69215e-06
1.92305e-07
8.69889e-06
1.88388e-07
8.70072e-06
1.66339e-07
1.42927e-07
8.70213e-06
9.12413e-06
1.06055e-07
9.09265e-06
-1.9613e-07
9.11432e-06
8.13807e-08
9.10365e-06
1.58686e-07
9.12159e-06
1.89291e-07
9.13066e-06
1.1963e-07
9.11769e-06
1.23579e-08
9.11096e-06
-2.10051e-09
9.08648e-06
-6.09565e-08
9.07199e-06
-1.71594e-08
9.07559e-06
1.20145e-07
9.07275e-06
1.66477e-07
9.07615e-06
1.828e-07
9.08936e-06
2.34028e-07
9.09713e-06
2.36201e-07
9.1005e-06
2.06375e-07
9.10729e-06
1.85515e-07
9.1145e-06
1.81179e-07
9.11749e-06
1.63348e-07
1.41719e-07
9.11869e-06
9.56034e-06
9.91759e-08
9.52923e-06
-1.65019e-07
9.54822e-06
6.23871e-08
9.54298e-06
1.63926e-07
9.55513e-06
1.77139e-07
9.56425e-06
1.10518e-07
9.55332e-06
2.32806e-08
9.54494e-06
6.28036e-09
9.52249e-06
-3.8505e-08
9.50737e-06
-2.04285e-09
9.51003e-06
1.17486e-07
9.50903e-06
1.67481e-07
9.51189e-06
1.79939e-07
9.52387e-06
2.22049e-07
9.53264e-06
2.27431e-07
9.53654e-06
2.02471e-07
9.54258e-06
1.79477e-07
9.54979e-06
1.73966e-07
9.55395e-06
1.59187e-07
1.40243e-07
9.55543e-06
1.00172e-05
9.21464e-08
9.98733e-06
-1.35187e-07
1.00027e-05
4.70375e-08
1.00029e-05
1.63673e-07
1.00105e-05
1.69583e-07
1.00177e-05
1.03331e-07
1.00087e-05
3.23067e-08
9.99957e-06
1.53597e-08
9.97893e-06
-1.7858e-08
9.96365e-06
1.32344e-08
9.96544e-06
1.15695e-07
9.96616e-06
1.66762e-07
9.96906e-06
1.77039e-07
9.97973e-06
2.11377e-07
9.98903e-06
2.18136e-07
9.99349e-06
1.9801e-07
9.999e-06
1.73968e-07
1.0006e-05
1.66989e-07
1.00109e-05
1.54228e-07
1.38064e-07
1.00131e-05
1.04956e-05
8.52033e-08
1.04678e-05
-1.07404e-07
1.0479e-05
3.58004e-08
1.04839e-05
1.58801e-07
1.04886e-05
1.64845e-07
1.04926e-05
9.93567e-08
1.0485e-05
3.99574e-08
1.0476e-05
2.43245e-08
1.04574e-05
7.76737e-10
1.04424e-05
2.81721e-08
1.04433e-05
1.14851e-07
1.04452e-05
1.64836e-07
1.04484e-05
1.73864e-07
1.0458e-05
2.01722e-07
1.04674e-05
2.08766e-07
1.04724e-05
1.92977e-07
1.04775e-05
1.68876e-07
1.04841e-05
1.60427e-07
1.04897e-05
1.48649e-07
1.35273e-07
1.04925e-05
1.09966e-05
7.85746e-08
1.09715e-05
-8.22398e-08
1.09785e-05
2.87475e-08
1.09866e-05
1.50719e-07
1.09908e-05
1.60709e-07
1.09916e-05
9.84862e-08
1.09842e-05
4.73658e-08
1.09755e-05
3.30453e-08
1.0959e-05
1.72767e-08
1.09449e-05
4.22987e-08
1.09448e-05
1.14939e-07
1.09474e-05
1.6226e-07
1.09508e-05
1.70411e-07
1.09597e-05
1.9284e-07
1.09689e-05
1.9954e-07
1.09744e-05
1.87445e-07
1.09792e-05
1.64133e-07
1.09854e-05
1.54245e-07
1.09912e-05
1.4283e-07
1.31865e-07
1.09946e-05
1.15215e-05
7.24536e-08
1.14993e-05
-6.00303e-08
1.15025e-05
2.55676e-08
1.15122e-05
1.41014e-07
1.15173e-05
1.55533e-07
1.15159e-05
9.99522e-08
1.1508e-05
5.52666e-08
1.14992e-05
4.17844e-08
1.14848e-05
3.17448e-08
1.14719e-05
5.51919e-08
1.1471e-05
1.1584e-07
1.14737e-05
1.59501e-07
1.14774e-05
1.66717e-07
1.14856e-05
1.8465e-07
1.14947e-05
1.9042e-07
1.15006e-05
1.81613e-07
1.15052e-05
1.59502e-07
1.15109e-05
1.48541e-07
1.15167e-05
1.36984e-07
1.2786e-07
1.15207e-05
1.20713e-05
6.69784e-08
1.20521e-05
-4.08816e-08
1.20522e-05
2.55109e-08
1.20621e-05
1.31165e-07
1.20689e-05
1.48711e-07
1.20665e-05
1.02362e-07
1.20576e-05
6.41821e-08
1.20484e-05
5.09168e-08
1.20358e-05
4.43509e-08
1.20244e-05
6.66367e-08
1.20229e-05
1.17269e-07
1.20255e-05
1.5692e-07
1.20293e-05
1.62918e-07
1.20368e-05
1.77143e-07
1.20459e-05
1.81383e-07
1.2052e-05
1.75486e-07
1.20566e-05
1.54854e-07
1.20618e-05
1.43339e-07
1.20676e-05
1.31248e-07
1.23362e-07
1.20721e-05
1.26474e-05
6.2218e-08
1.26312e-05
-2.47643e-08
1.26291e-05
2.76835e-08
1.2638e-05
1.22271e-07
1.26462e-05
1.40465e-07
1.26443e-05
1.04218e-07
1.26343e-05
7.42437e-08
1.26243e-05
6.08779e-08
1.26132e-05
5.54522e-08
1.26034e-05
7.64502e-08
1.26018e-05
1.18916e-07
1.26041e-05
1.54607e-07
1.26078e-05
1.59241e-07
1.26147e-05
1.70223e-07
1.26234e-05
1.72608e-07
1.26299e-05
1.69031e-07
1.26347e-05
1.50064e-07
1.26394e-05
1.38596e-07
1.26449e-05
1.25747e-07
1.18523e-07
1.26498e-05
1.3251e-05
5.81645e-08
1.32377e-05
-1.14911e-08
1.32343e-05
3.1127e-08
1.32416e-05
1.14951e-07
1.32504e-05
1.31613e-07
1.325e-05
1.04622e-07
1.32395e-05
8.47912e-08
1.32282e-05
7.21453e-08
1.32181e-05
6.55391e-08
1.321e-05
8.45675e-08
1.32086e-05
1.20343e-07
1.32107e-05
1.52519e-07
1.3214e-05
1.55912e-07
1.32204e-05
1.6388e-07
1.32288e-05
1.64196e-07
1.32355e-05
1.62285e-07
1.32406e-05
1.45013e-07
1.32451e-05
1.34061e-07
1.32501e-05
1.20705e-07
1.13472e-07
1.32552e-05
1.38836e-05
5.47082e-08
1.38728e-05
-6.6864e-10
1.3869e-05
3.49684e-08
1.38742e-05
1.09705e-07
1.38828e-05
1.23031e-07
1.38843e-05
1.03089e-07
1.38742e-05
9.49428e-08
1.38615e-05
8.48094e-08
1.38518e-05
7.52129e-08
1.38454e-05
9.10266e-08
1.38446e-05
1.21157e-07
1.38466e-05
1.50499e-07
1.38496e-05
1.52843e-07
1.38553e-05
1.58275e-07
1.38632e-05
1.56293e-07
1.38701e-05
1.55334e-07
1.38754e-05
1.39757e-07
1.388e-05
1.29414e-07
1.38846e-05
1.16124e-07
1.08497e-07
1.38896e-05
1.45468e-05
5.15366e-08
1.45374e-05
8.80936e-09
1.45335e-05
3.88666e-08
1.45373e-05
1.05876e-07
1.45448e-05
1.15494e-07
1.4548e-05
9.98812e-08
1.45391e-05
1.03914e-07
1.45256e-05
9.82836e-08
1.45158e-05
8.49519e-08
1.45107e-05
9.62252e-08
1.45108e-05
1.21049e-07
1.4513e-05
1.48246e-07
1.4516e-05
1.4987e-07
1.45208e-05
1.53414e-07
1.45282e-05
1.4898e-07
1.45352e-05
1.48334e-07
1.45406e-05
1.34333e-07
1.45455e-05
1.24542e-07
1.45498e-05
1.11739e-07
1.03905e-07
1.45544e-05
1.52412e-05
4.92188e-08
1.52296e-05
2.03765e-08
1.52279e-05
4.05632e-08
1.52331e-05
1.00682e-07
1.52388e-05
1.09802e-07
1.52414e-05
9.73417e-08
1.52346e-05
1.10656e-07
1.52219e-05
1.11016e-07
1.52121e-05
9.47706e-08
1.52074e-05
1.00887e-07
1.52084e-05
1.20024e-07
1.52113e-05
1.45363e-07
1.52143e-05
1.46848e-07
1.52187e-05
1.49065e-07
1.52252e-05
1.42511e-07
1.52321e-05
1.41415e-07
1.52376e-05
1.28761e-07
1.52426e-05
1.1957e-07
1.52472e-05
1.072e-07
9.96867e-08
1.52514e-05
1.59709e-05
4.56982e-08
1.59723e-05
1.89299e-08
1.59737e-05
3.91178e-08
1.59683e-05
1.06117e-07
1.59639e-05
1.14162e-07
1.59646e-05
9.66616e-08
1.59622e-05
1.1307e-07
1.59519e-05
1.21346e-07
1.59421e-05
1.04542e-07
1.59374e-05
1.05577e-07
1.5939e-05
1.1848e-07
1.59427e-05
1.41647e-07
1.59462e-05
1.43329e-07
1.59502e-05
1.45092e-07
1.59559e-05
1.3676e-07
1.59625e-05
1.34799e-07
1.59683e-05
1.23045e-07
1.59732e-05
1.14627e-07
1.5978e-05
1.0236e-07
9.56498e-08
1.59821e-05
1.67322e-05
4.40946e-08
1.67173e-05
3.38119e-08
1.67156e-05
4.087e-08
1.67198e-05
1.0191e-07
1.67204e-05
1.13529e-07
1.67224e-05
9.46364e-08
1.67242e-05
1.11345e-07
1.67171e-05
1.28368e-07
1.67077e-05
1.13946e-07
1.67027e-05
1.10576e-07
1.67043e-05
1.16926e-07
1.67087e-05
1.37264e-07
1.6713e-05
1.39048e-07
1.6717e-05
1.41066e-07
1.6722e-05
1.31704e-07
1.67281e-05
1.28687e-07
1.6734e-05
1.17222e-07
1.67388e-05
1.09776e-07
1.67438e-05
9.7418e-08
9.14299e-08
1.6748e-05
1.75331e-05
4.13897e-08
1.75276e-05
3.93223e-08
1.75214e-05
4.70525e-08
1.75196e-05
1.03651e-07
1.75173e-05
1.1581e-07
1.75175e-05
9.45108e-08
1.75219e-05
1.06943e-07
1.75186e-05
1.31639e-07
1.75104e-05
1.22138e-07
1.7505e-05
1.16023e-07
1.75062e-05
1.15736e-07
1.75109e-05
1.32521e-07
1.7516e-05
1.33985e-07
1.75205e-05
1.3655e-07
1.75253e-05
1.26921e-07
1.75308e-05
1.23165e-07
1.75365e-05
1.11529e-07
1.75414e-05
1.0485e-07
1.75461e-05
9.27162e-08
8.68282e-08
1.75507e-05
1.83698e-05
3.99283e-08
1.83588e-05
5.03344e-08
1.83548e-05
5.1066e-08
1.83577e-05
1.00771e-07
1.83559e-05
1.17529e-07
1.8353e-05
9.74834e-08
1.83572e-05
1.0268e-07
1.83578e-05
1.3107e-07
1.83519e-05
1.28088e-07
1.83462e-05
1.21659e-07
1.83466e-05
1.15335e-07
1.83512e-05
1.27933e-07
1.83568e-05
1.28356e-07
1.83619e-05
1.31473e-07
1.83669e-05
1.21975e-07
1.83719e-05
1.18073e-07
1.83773e-05
1.06172e-07
1.83824e-05
9.9739e-08
1.83869e-05
8.81915e-08
8.21404e-08
1.83916e-05
1.92483e-05
3.80074e-08
1.92402e-05
5.84061e-08
1.92337e-05
5.76043e-08
1.9236e-05
9.85085e-08
1.92354e-05
1.18112e-07
1.92305e-05
1.02406e-07
1.92329e-05
1.00288e-07
1.92362e-05
1.27762e-07
1.92331e-05
1.31154e-07