/*--------------------------------*- C++ -*----------------------------------*\
| =========                 |                                                 |
| \\      /  F ield         | OpenFOAM: The Open Source CFD Toolbox           |
|  \\    /   O peration     | Version:  2506                                  |
|   \\  /    A nd           | Website:  www.openfoam.com                      |
|    \\/     M anipulation  |                                                 |
\*---------------------------------------------------------------------------*/
FoamFile
{
    version     2.0;
    format      ascii;
    arch        "LSB;label=32;scalar=64";
    class       volScalarField;
    location    "9.45";
    object      p;
}
// * * * * * * * * * * * * * * * * * * * * * * * * * * * * * * * * * * * * * //

dimensions      [0 2 -2 0 0 0 0];

internalField   nonuniform List<scalar> 
9600
(
5.56593e-11
0.00201243
-0.00631038
-0.00610231
0.00208011
0.000845106
-0.0060544
-0.0039756
-0.00643482
-0.00931268
-0.00823385
-0.00629942
-0.00699975
-0.00767264
-0.0083758
-0.00887264
-0.00852043
-0.00590935
-0.00416918
0.00107453
7.89625e-06
0.001975
-0.00629245
-0.00607362
0.00203067
0.0008222
-0.00602435
-0.00401532
-0.00642549
-0.00930225
-0.00824843
-0.00627972
-0.00700481
-0.00768197
-0.00837885
-0.00886899
-0.00842563
-0.00593135
-0.00413156
0.00047519
1.24985e-05
0.00192811
-0.00625721
-0.00602765
0.00197803
0.000797546
-0.0059953
-0.0040686
-0.00639877
-0.00928232
-0.00825412
-0.00625531
-0.00702071
-0.00768882
-0.00838317
-0.00885259
-0.00837177
-0.00595683
-0.00414176
-8.56487e-05
1.02711e-05
0.00187266
-0.00621616
-0.00597714
0.00191547
0.000768266
-0.00597935
-0.00412603
-0.00636449
-0.00924227
-0.00824826
-0.00624968
-0.0070416
-0.00769203
-0.00839573
-0.00883698
-0.00831826
-0.00600078
-0.00417244
-0.0006162
2.14414e-06
0.00180694
-0.0061676
-0.00592472
0.00183644
0.000733451
-0.00596755
-0.00418686
-0.0063248
-0.00918289
-0.00824265
-0.00626532
-0.00706431
-0.00770068
-0.00841651
-0.00882563
-0.00826638
-0.0060452
-0.00422135
-0.00111311
-1.10059e-05
0.00172971
-0.00610797
-0.00587471
0.00174035
0.000694381
-0.00595339
-0.0042523
-0.00627927
-0.0091135
-0.00824528
-0.00629565
-0.00708893
-0.00771523
-0.00843904
-0.00881783
-0.00821453
-0.00609654
-0.00428951
-0.00158487
-2.82873e-05
0.00164648
-0.00603735
-0.00583212
0.00163013
0.000651841
-0.00593465
-0.0043219
-0.00622913
-0.00904156
-0.00825705
-0.00633404
-0.0071136
-0.00773178
-0.00845937
-0.00881204
-0.00816301
-0.00615404
-0.0043781
-0.00203605
-4.84779e-05
0.00155815
-0.00595858
-0.00579892
0.00151075
0.000605587
-0.0059109
-0.00439473
-0.00617595
-0.0089701
-0.0082758
-0.00637519
-0.00713717
-0.0077495
-0.00847643
-0.00880772
-0.00811332
-0.00621627
-0.00448776
-0.00246985
-7.04309e-05
0.00146602
-0.00587534
-0.00577371
0.00138671
0.0005548
-0.00588312
-0.00447046
-0.00612049
-0.00889962
-0.00829893
-0.00641643
-0.0071602
-0.00776925
-0.00849034
-0.00880505
-0.00806689
-0.00628201
-0.00461929
-0.00288926
-9.3396e-05
0.00137049
-0.00579041
-0.00575363
0.00126021
0.000498621
-0.00585342
-0.00454912
-0.00606303
-0.00882994
-0.0083248
-0.00645738
-0.00718348
-0.00779139
-0.00850181
-0.00880402
-0.00802471
-0.00635095
-0.00477269
-0.00329665
-0.000117012
0.00127156
-0.00570525
-0.00573627
0.00113132
0.000436594
-0.00582333
-0.00463081
-0.00600403
-0.0087607
-0.00835289
-0.00649851
-0.00720714
-0.00781607
-0.00851136
-0.00880385
-0.00798796
-0.00642355
-0.00494593
-0.00369398
-0.000141165
0.00116914
-0.00562036
-0.00572008
0.000999418
0.000368724
-0.00579367
-0.00471564
-0.0059441
-0.00869153
-0.00838326
-0.00654001
-0.00723127
-0.00784336
-0.00851885
-0.00880387
-0.00795806
-0.00650023
-0.00513558
-0.00408313
-0.000165853
0.00106319
-0.00553581
-0.00570432
0.000863984
0.000295405
-0.00576462
-0.00480368
-0.00588381
-0.00862209
-0.0084161
-0.00658181
-0.00725609
-0.00787286
-0.00852417
-0.00880414
-0.007936
-0.00658132
-0.00533848
-0.00446518
-0.000191118
0.000953763
-0.00545161
-0.00568878
0.000724899
0.000217286
-0.00573614
-0.00489482
-0.00582374
-0.00855205
-0.00845155
-0.00662376
-0.00728163
-0.00790412
-0.00852771
-0.00880515
-0.00792211
-0.0066682
-0.00555314
-0.00484091
-0.000217025
0.00084094
-0.00536785
-0.00567342
0.000582395
0.000135008
-0.00570822
-0.00498881
-0.00576448
-0.00848107
-0.00848981
-0.00666559
-0.00730773
-0.00793706
-0.00853004
-0.00880773
-0.0079163
-0.00676314
-0.00577965
-0.00520885
-0.000243652
0.000724832
-0.00528468
-0.00565824
0.00043679
4.90962e-05
-0.00568095
-0.00508527
-0.00570655
-0.00840881
-0.00853109
-0.00670698
-0.00733418
-0.00797197
-0.00853151
-0.00881339
-0.00791852
-0.00686602
-0.00601751
-0.00556717
-0.000271089
0.000605585
-0.00520236
-0.00564325
0.000288334
-4.00107e-05
-0.00565452
-0.0051837
-0.00565055
-0.00833497
-0.00857558
-0.00674769
-0.0073608
-0.00800941
-0.008532
-0.00882435
-0.00792921
-0.00697517
-0.00626649
-0.00591593
-0.000299436
0.000483374
-0.00512119
-0.00562845
0.000137169
-0.000131972
-0.00562921
-0.00528357
-0.00559715
-0.00825924
-0.00862343
-0.00678765
-0.00738728
-0.00805029
-0.00853104
-0.00884248
-0.00794977
-0.00708751
-0.00652737
-0.00625775
-0.00032881
0.000358397
-0.00504152
-0.00561386
-1.66383e-05
-0.000226277
-0.00560531
-0.00538438
-0.00554705
-0.0081814
-0.00867473
-0.00682706
-0.00741292
-0.00809577
-0.00852827
-0.00886846
-0.00798215
-0.00719976
-0.00680001
-0.0065966
-0.00035935
0.000230884
-0.00496376
-0.00559942
-0.000173122
-0.000322624
-0.00558311
-0.00548564
-0.00550093
-0.00810129
-0.00872948
-0.00686649
-0.00743654
-0.00814719
-0.00852388
-0.00890172
-0.00802939
-0.00730929
-0.00708152
-0.00693716
-0.000391226
0.000101109
-0.00488834
-0.00558508
-0.000332395
-0.000420762
-0.00556284
-0.00558697
-0.00545952
-0.0080188
-0.00878742
-0.00690666
-0.00745676
-0.00820606
-0.0085187
-0.00894034
-0.00809532
-0.00741508
-0.00736687
-0.00728483
-0.000424651
-3.05999e-05
-0.00481575
-0.00557078
-0.000494605
-0.000520405
-0.00554467
-0.00568807
-0.00542353
-0.0079339
-0.00884802
-0.00694867
-0.00747223
-0.00827348
-0.00851429
-0.00898131
-0.00818356
-0.00751857
-0.00764929
-0.00764484
-0.000459868
-0.000163883
-0.00474648
-0.00555641
-0.000659958
-0.000621266
-0.00552875
-0.00578884
-0.00539356
-0.00784666
-0.00891061
-0.00699411
-0.00748152
-0.00834975
-0.00851345
-0.00902079
-0.00829608
-0.00762354
-0.00792055
-0.00802068
-0.000497161
-0.000298317
-0.00468111
-0.00554186
-0.00082868
-0.000723202
-0.00551509
-0.00588935
-0.00537005
-0.00775743
-0.00897436
-0.0070445
-0.00748342
-0.00843442
-0.00852
-0.00905498
-0.00843257
-0.00773569
-0.0081722
-0.00841236
-0.000536866
-0.000433405
-0.00462023
-0.00552697
-0.00100098
-0.00082615
-0.00550354
-0.00598983
-0.00535328
-0.00766693
-0.00903849
-0.00710103
-0.00747718
-0.00852649
-0.00853789
-0.00908096
-0.0085909
-0.00786237
-0.00839693
-0.00881457
-0.000579348
-0.000568624
-0.00456445
-0.00551162
-0.001177
-0.000930111
-0.00549398
-0.00609059
-0.00534333
-0.0075758
-0.00910256
-0.00716492
-0.00746238
-0.00862436
-0.00857106
-0.00909685
-0.0087668
-0.00801219
-0.00859028
-0.00921494
-0.000625023
-0.000703402
-0.00451437
-0.00549574
-0.00135674
-0.00103527
-0.00548612
-0.00619204
-0.00534022
-0.00748443
-0.00916628
-0.00723752
-0.00743907
-0.0087258
-0.00862354
-0.0091019
-0.00895348
-0.00819392
-0.00875347
-0.00959494
-0.000674366
-0.000837103
-0.00447059
-0.00547926
-0.00154012
-0.00114197
-0.00547936
-0.006295
-0.00534415
-0.00739285
-0.00922914
-0.00732021
-0.00740782
-0.00882796
-0.00869928
-0.00909706
-0.00914171
-0.00841431
-0.00889584
-0.0099338
-0.000727887
-0.000969049
-0.0044337
-0.0054622
-0.00172692
-0.00125069
-0.00547279
-0.00640037
-0.00535576
-0.00730099
-0.00929047
-0.00741429
-0.00736934
-0.00892747
-0.00880196
-0.00908575
-0.00932085
-0.00867579
-0.00903394
-0.0102124
-0.000786138
-0.00109854
-0.00440421
-0.00544477
-0.00191673
-0.00136218
-0.00546517
-0.00650872
-0.0053761
-0.00720861
-0.00934972
-0.00752127
-0.00732468
-0.00902061
-0.00893443
-0.00907362
-0.00947997
-0.00897433
-0.0091893
-0.010421
-0.000849708
-0.00122486
-0.00438253
-0.00542731
-0.0021089
-0.00147742
-0.00545518
-0.00662013
-0.00540671
-0.00711555
-0.00940627
-0.00764309
-0.00727522
-0.00910272
-0.00909854
-0.0090687
-0.00960914
-0.00929826
-0.00938405
-0.010568
-0.000919197
-0.00134734
-0.004369
-0.00541025
-0.0023026
-0.00159756
-0.00544163
-0.0067341
-0.00544967
-0.0070217
-0.00945874
-0.0077821
-0.00722317
-0.0091679
-0.00929496
-0.00908161
-0.00970151
-0.00963028
-0.00963342
-0.0106798
-0.000995246
-0.00146533
-0.00436374
-0.00539431
-0.00249662
-0.00172419
-0.00542372
-0.00684947
-0.00550732
-0.00692714
-0.00950479
-0.00794045
-0.00717275
-0.00921015
-0.00952165
-0.00912421
-0.00975563
-0.00995032
-0.00993905
-0.0107909
-0.00107857
-0.00157829
-0.00436649
-0.00538042
-0.00268934
-0.00185909
-0.00540177
-0.00696429
-0.00558168
-0.00683269
-0.00954136
-0.00811935
-0.00713064
-0.00922425
-0.00977267
-0.00920761
-0.00977637
-0.0102401
-0.0102887
-0.0109347
-0.00116976
-0.00168588
-0.00437673
-0.00536975
-0.00287883
-0.0020037
-0.00537658
-0.00707597
-0.00567482
-0.00674062
-0.00956472
-0.00831845
-0.00710488
-0.00920648
-0.010039
-0.00934116
-0.00977289
-0.0104864
-0.0106641
-0.0111296
-0.00126941
-0.00178804
-0.00439348
-0.00536395
-0.00306312
-0.00215855
-0.00534978
-0.00718161
-0.00578806
-0.00665451
-0.00957115
-0.00853542
-0.00710404
-0.00915588
-0.0103088
-0.00953171
-0.00975749
-0.0106802
-0.0110493
-0.0113778
-0.00137812
-0.00188478
-0.00441519
-0.00536533
-0.00324071
-0.00232331
-0.00532432
-0.00727807
-0.00592065
-0.00657884
-0.0095582
-0.00876586
-0.00713663
-0.00907591
-0.0105674
-0.00978242
-0.00974697
-0.0108127
-0.0114286
-0.0116769
-0.00149627
-0.0019766
-0.00443965
-0.00537635
-0.00341114
-0.00249653
-0.00530355
-0.00736272
-0.00607088
-0.00651864
-0.00952523
-0.00900392
-0.00720987
-0.00897438
-0.0107988
-0.0100904
-0.00976374
-0.0108786
-0.0117808
-0.0120244
-0.00162414
-0.00206435
-0.00446409
-0.00539937
-0.00357487
-0.0026757
-0.00529111
-0.00743408
-0.00623584
-0.0064785
-0.00947354
-0.00924289
-0.00732861
-0.00886198
-0.0109883
-0.0104449
-0.00983203
-0.0108851
-0.0120786
-0.0124113
-0.00176184
-0.00214914
-0.00448564
-0.00543626
-0.00373359
-0.00285736
-0.00529042
-0.00749264
-0.0064111
-0.00646235
-0.0094061
-0.00947572
-0.00749473
-0.00875114
-0.0111255
-0.0108296
-0.00996959
-0.0108524
-0.0122971
-0.0128139
-0.00190925
-0.00223247
-0.00450144
-0.00548774
-0.00389041
-0.00303767
-0.00530338
-0.00754011
-0.0065916
-0.00647258
-0.00932725
-0.00969613
-0.00770675
-0.00865491
-0.0112063
-0.011226
-0.0101838
-0.0108082
-0.0124236
-0.0131969
-0.00206608
-0.00231608
-0.00450903
-0.00555359
-0.0040492
-0.00321316
-0.00533003
-0.00758009
-0.00677254
-0.00650909
-0.00924347
-0.00990003
-0.00796003
-0.00858572
-0.0112317
-0.0116145
-0.0104739
-0.0107812
-0.0124612
-0.0135236
-0.0022316
-0.002402
-0.00450698
-0.0056326
-0.00421436
-0.00338078
-0.00536821
-0.00761855
-0.00695153
-0.00656978
-0.00916089
-0.0100864
-0.00824861
-0.0085542
-0.0112057
-0.0119743
-0.0108333
-0.010798
-0.0124259
-0.0137643
-0.00240478
-0.00249244
-0.00449498
-0.00572182
-0.00439066
-0.00353976
-0.00541417
-0.00766128
-0.00712945
-0.00665087
-0.00908185
-0.0102556
-0.00856745
-0.00856888
-0.011136
-0.0122842
-0.0112494
-0.0108824
-0.012342
-0.0139022
-0.00258447
-0.00258967
-0.00447332
-0.00581722
-0.00458212
-0.00369138
-0.00546334
-0.00771186
-0.0073082
-0.00674925
-0.00900561
-0.0104068
-0.00891237
-0.00863631
-0.0110341
-0.0125263
-0.0117013
-0.0110527
-0.0122408
-0.0139366
-0.00276916
-0.00269599
-0.0044436
-0.00591377
-0.00479128
-0.00383863
-0.00550989
-0.00777151
-0.00749268
-0.00686476
-0.00893124
-0.0105365
-0.0092776
-0.00876163
-0.0109159
-0.0126891
-0.0121601
-0.0113171
-0.0121588
-0.0138807
-0.00295686
-0.0028139
-0.00440878
-0.00600526
-0.00501934
-0.00398778
-0.00554758
-0.00783736
-0.00769026
-0.00700007
-0.00885802
-0.0106391
-0.00965407
-0.00894801
-0.0108003
-0.0127702
-0.0125945
-0.0116686
-0.0121339
-0.0137607
-0.00314545
-0.00294568
-0.00437278
-0.00608488
-0.00526591
-0.00414775
-0.00557349
-0.00790463
-0.00790515
-0.00715942
-0.00878791
-0.0107073
-0.0100298
-0.0091957
-0.0107077
-0.0127767
-0.012976
-0.0120851
-0.0121965
-0.0136132
-0.00333282
-0.00309271
-0.00434134
-0.00614579
-0.00552796
-0.00433038
-0.00558989
-0.00796223
-0.00813464
-0.00734929
-0.00872822
-0.0107355
-0.01039
-0.00950026
-0.0106577
-0.0127242
-0.0132831
-0.0125351
-0.0123609
-0.0134812
-0.00351713
-0.00325552
-0.00432072
-0.00618375
-0.00580016
-0.00454573
-0.00560243
-0.00799804
-0.00837211
-0.00757495
-0.00868839
-0.0107239
-0.010719
-0.00985032
-0.0106678
-0.0126357
-0.0135033
-0.0129831
-0.0126215
-0.0134048
-0.00369703
-0.0034341
-0.00431677
-0.00619739
-0.00607369
-0.00479911
-0.00562047
-0.00800549
-0.00860805
-0.00783696
-0.00867999
-0.0106795
-0.0110038
-0.0102293
-0.0107474
-0.0125389
-0.0136357
-0.0133937
-0.0129562
-0.0134113
-0.00387159
-0.00362669
-0.00433557
-0.00618781
-0.00633771
-0.00509203
-0.00565802
-0.00798431
-0.0088278
-0.00812902
-0.00871477
-0.0106133
-0.0112343
-0.0106192
-0.0108966
-0.0124603
-0.0136956
-0.0137387
-0.0133322
-0.0135124
-0.00404053
-0.00382994
-0.00438141
-0.00615974
-0.00658111
-0.00542098
-0.00573183
-0.0079409
-0.00901636
-0.00844076
-0.00879967
-0.0105399
-0.0114059
-0.011001
-0.0111075
-0.0124181
-0.0137054
-0.014003
-0.01371
-0.0137026
-0.00420399
-0.00404011
-0.00445646
-0.00612155
-0.00679478
-0.00577873
-0.0058555
-0.00788662
-0.0091639
-0.00875819
-0.0089355
-0.010477
-0.0115232
-0.0113569
-0.0113681
-0.0124243
-0.0136887
-0.0141884
-0.0140526
-0.0139563
-0.00436235
-0.00425334
-0.00456151
-0.00608365
-0.00697293
-0.00615213
-0.00603544
-0.00783934
-0.00926729
-0.00906485
-0.00911567
-0.0104382
-0.0115957
-0.0116722
-0.0116617
-0.0124873
-0.0136682
-0.0143112
-0.0143379
-0.0142341
-0.00451727
-0.00446713
-0.00469552
-0.00605495
-0.0071141
-0.00652494
-0.00627216
-0.00781646
-0.00933049
-0.00934623
-0.00933041
-0.0104324
-0.0116344
-0.0119395
-0.0119687
-0.0126066
-0.0136626
-0.0143892
-0.0145613
-0.014499
-0.0046687
-0.00468316
-0.00485716
-0.00604645
-0.0072197
-0.00688323
-0.00656104
-0.00783027
-0.00936204
-0.00959489
-0.00956758
-0.0104653
-0.011653
-0.0121569
-0.0122725
-0.0127737
-0.0136854
-0.0144394
-0.0147305
-0.0147301
-0.00481655
-0.00487322
-0.0050441
-0.0060822
-0.00730707
-0.00721343
-0.00688179
-0.00788721
-0.00937516
-0.00980737
-0.00981494
-0.0105367
-0.0116642
-0.0123244
-0.0125569
-0.0129768
-0.013746
-0.0144785
-0.0148557
-0.0149244
-0.00496737
-0.00507095
-0.00524705
-0.00614936
-0.00737825
-0.00750719
-0.00721462
-0.00798923
-0.00938571
-0.00998533
-0.010065
-0.0106456
-0.0116811
-0.012448
-0.0128093
-0.0132015
-0.0138474
-0.0145233
-0.0149469
-0.01508
-0.00512132
-0.00526047
-0.00546441
-0.00624676
-0.00744158
-0.00776325
-0.00754769
-0.00813351
-0.00940613
-0.0101338
-0.010311
-0.0107884
-0.0117125
-0.0125377
-0.0130208
-0.0134281
-0.0139859
-0.0145904
-0.0150194
-0.0151979
-0.00528075
-0.00544992
-0.00568427
-0.00637011
-0.00750716
-0.00798496
-0.00787255
-0.00831515
-0.00944387
-0.0102577
-0.010546
-0.01096
-0.0117666
-0.0126052
-0.0131903
-0.0136402
-0.0141483
-0.0146887
-0.0150953
-0.0152905
-0.00544887
-0.00563818
-0.00590332
-0.00651443
-0.00758242
-0.00817962
-0.00818267
-0.00852692
-0.00950633
-0.0103626
-0.010762
-0.0111509
-0.0118468
-0.0126599
-0.0133189
-0.0138253
-0.0143133
-0.0148086
-0.0151884
-0.0153756
-0.00562378
-0.005831
-0.00612106
-0.00667779
-0.00767163
-0.00835344
-0.00847399
-0.00875804
-0.00959404
-0.0104519
-0.0109504
-0.011349
-0.0119565
-0.0127155
-0.0134148
-0.0139802
-0.0144678
-0.0149325
-0.0152951
-0.0154681
-0.00580258
-0.00601471
-0.00634165
-0.00686211
-0.00777709
-0.00851021
-0.00874285
-0.00900006
-0.0097071
-0.0105352
-0.011112
-0.0115428
-0.0120922
-0.0127871
-0.0134906
-0.0141056
-0.0146104
-0.0150531
-0.0154023
-0.0155647
-0.00598852
-0.00620664
-0.00655815
-0.00705767
-0.00790031
-0.00865625
-0.00898785
-0.00924565
-0.0098439
-0.0106202
-0.0112488
-0.0117202
-0.012238
-0.0128758
-0.0135553
-0.0141991
-0.014738
-0.0151732
-0.0155094
-0.0156659
-0.00618147
-0.00639742
-0.0067718
-0.00726203
-0.00804039
-0.00879671
-0.00920943
-0.00948709
-0.0100004
-0.010712
-0.011366
-0.0118786
-0.012383
-0.0129763
-0.0136199
-0.0142617
-0.0148342
-0.0152834
-0.015612
-0.0157689
-0.00638069
-0.00659669
-0.00698227
-0.00747015
-0.00819535
-0.00893623
-0.00941024
-0.00971864
-0.0101709
-0.0108142
-0.0114679
-0.0120145
-0.0125201
-0.0130813
-0.0136927
-0.0143118
-0.0148952
-0.0153702
-0.0157032
-0.015863
-0.00658433
-0.00679519
-0.00719135
-0.00768192
-0.00836369
-0.00907934
-0.00959436
-0.00993553
-0.0103486
-0.0109298
-0.0115618
-0.0121259
-0.0126416
-0.0131787
-0.0137625
-0.0143585
-0.0149311
-0.0154256
-0.0157744
-0.0159414
-0.00679387
-0.00699956
-0.00739809
-0.00789256
-0.00854297
-0.00922958
-0.00976816
-0.0101373
-0.0105243
-0.0110511
-0.0116497
-0.0122134
-0.0127401
-0.0132621
-0.0138164
-0.0143935
-0.0149487
-0.0154489
-0.0158187
-0.0160003
-0.00700889
-0.00721395
-0.00760364
-0.00810047
-0.00873051
-0.00938681
-0.00993266
-0.0103235
-0.0106949
-0.0111737
-0.0117335
-0.012283
-0.0128117
-0.0133279
-0.0138532
-0.0144082
-0.0149489
-0.0154411
-0.0158245
-0.0160233
-0.00722459
-0.00742323
-0.00781288
-0.00830934
-0.008923
-0.00955133
-0.010093
-0.0104962
-0.0108614
-0.0113
-0.0118133
-0.0123367
-0.0128519
-0.0133615
-0.0138638
-0.01439
-0.0149187
-0.0154014
-0.0157901
-0.0160033
-0.00744479
-0.0076406
-0.00802337
-0.00851459
-0.0091143
-0.00972016
-0.0102542
-0.0106595
-0.0110185
-0.0114243
-0.0118867
-0.0123724
-0.0128608
-0.0133517
-0.0138362
-0.014331
-0.0148443
-0.0153219
-0.0157122
-0.0159395
-0.0076706
-0.00786458
-0.00823527
-0.00871613
-0.00930445
-0.00988867
-0.0104122
-0.0108209
-0.0111729
-0.0115457
-0.0119544
-0.0123872
-0.0128298
-0.0132813
-0.013742
-0.0142115
-0.0147078
-0.0151882
-0.0155845
-0.0158309
-0.00789642
-0.00808666
-0.00845299
-0.00892298
-0.00949565
-0.0100546
-0.0105632
-0.0109819
-0.0113454
-0.0116865
-0.012026
-0.0123767
-0.012736
-0.0131046
-0.0134913
-0.0138974
-0.0143412
-0.0148187
-0.0152786
-0.0156484
-0.00812098
-0.00831181
-0.00867743
-0.00913698
-0.00968677
-0.0102211
-0.0107057
-0.0111286
-0.0115563
-0.0119578
-0.0122605
-0.0125086
-0.0127533
-0.0130242
-0.0133069
-0.0135559
-0.0137353
-0.0138281
-0.013854
-0.0138914
-0.00835628
-0.00852275
-0.00886939
-0.00931185
-0.00986168
-0.0103993
-0.0108383
-0.0111629
-0.0114678
-0.0117901
-0.0121204
-0.0124536
-0.0127595
-0.0130196
-0.0132274
-0.0133802
-0.013492
-0.0136023
-0.0137495
-0.0139782
-0.00865371
-0.00884554
-0.00909586
-0.00941921
-0.0098748
-0.0103499
-0.0107852
-0.01116
-0.0115152
-0.0118675
-0.0122275
-0.0125852
-0.0128969
-0.0131539
-0.0133495
-0.0134741
-0.0135289
-0.0135311
-0.0135262
-0.0135878
-0.00879145
-0.00890261
-0.00916487
-0.00950235
-0.00994156
-0.0104006
-0.0108361
-0.0112204
-0.0115841
-0.0119219
-0.0122314
-0.0125279
-0.0127957
-0.0130359
-0.0132966
-0.0136164
-0.0140301
-0.0145405
-0.0151051
-0.0156388
-0.0090454
-0.00918925
-0.00936422
-0.00959773
-0.00997754
-0.0104098
-0.0108419
-0.011244
-0.0116232
-0.0119773
-0.0123118
-0.0126222
-0.0129028
-0.0131197
-0.0132642
-0.0133468
-0.0133652
-0.0133562
-0.0133727
-0.0135035
-0.00920158
-0.00931156
-0.00945308
-0.00964704
-0.00999406
-0.0104141
-0.010845
-0.0112573
-0.0116566
-0.0120232
-0.0123716
-0.0126785
-0.0129328
-0.0131241
-0.0132482
-0.013348
-0.0134484
-0.0135837
-0.0137842
-0.0141068
0.00363174
-0.00313931
-0.0118028
-0.0180844
-0.0199644
-0.0192607
-0.0183618
-0.0181347
-0.0184743
-0.0189234
-0.0191457
-0.0191028
-0.0189716
-0.018989
-0.0191962
-0.0194462
-0.019646
-0.0197413
-0.0197198
-0.0197452
-0.0199159
-0.0201117
-0.0202594
-0.0204018
-0.020568
-0.0207659
-0.0210056
-0.021293
-0.0215935
-0.0218718
-0.02215
-0.0224288
-0.0226811
-0.0229401
-0.0232532
-0.0235777
-0.0238645
-0.0241245
-0.0244172
-0.0247501
-0.0250539
-0.0253
-0.0255582
-0.0258994
-0.0263588
-0.0268809
-0.0274007
-0.0278338
-0.0281187
-0.028316
-0.028562
-0.0288951
-0.0292521
-0.0296181
-0.03004
-0.0305345
-0.0310222
-0.0314489
-0.0318401
-0.0322489
-0.0327036
-0.0331634
-0.0336137
-0.034065
-0.0345211
-0.0349768
-0.035475
-0.0359733
-0.0364592
-0.036959
-0.0374707
-0.0379619
-0.0384508
-0.0389758
-0.0394997
-0.0400336
-0.0405604
-0.0411312
-0.0417028
-0.042276
-0.0428239
-0.0434073
-0.0440222
-0.0446776
-0.0453306
-0.045968
-0.0466192
-0.0472548
-0.047957
-0.0486266
-0.0493392
-0.0500608
-0.0507723
-0.0515142
-0.0522401
-0.0529623
-0.0537578
-0.0544798
-0.055158
-0.0559463
0.00282968
-0.00328689
-0.0117166
-0.0179399
-0.0198769
-0.0192167
-0.0183331
-0.0181155
-0.0184618
-0.0189151
-0.0191399
-0.0190982
-0.0189672
-0.0189844
-0.0191919
-0.0194424
-0.0196427
-0.0197386
-0.0197173
-0.0197426
-0.0199136
-0.0201098
-0.0202576
-0.0204001
-0.0205664
-0.0207644
-0.0210041
-0.0212916
-0.0215922
-0.0218705
-0.0221487
-0.0224276
-0.0226799
-0.0229389
-0.023252
-0.0235766
-0.0238634
-0.0241235
-0.0244162
-0.0247492
-0.0250531
-0.0252992
-0.0255574
-0.0258986
-0.026358
-0.0268802
-0.0274001
-0.0278333
-0.0281183
-0.0283155
-0.0285616
-0.0288947
-0.0292517
-0.0296177
-0.0300396
-0.0305341
-0.0310219
-0.0314487
-0.0318398
-0.0322486
-0.0327033
-0.0331631
-0.0336134
-0.0340648
-0.0345209
-0.0349766
-0.0354747
-0.0359731
-0.036459
-0.0369588
-0.0374705
-0.0379618
-0.0384506
-0.0389756
-0.0394995
-0.0400335
-0.0405602
-0.0411311
-0.0417027
-0.0422759
-0.0428238
-0.0434072
-0.044022
-0.0446774
-0.0453305
-0.0459679
-0.0466191
-0.0472547
-0.0479569
-0.0486265
-0.0493391
-0.0500607
-0.0507722
-0.0515141
-0.05224
-0.0529622
-0.0537577
-0.0544797
-0.0551578
-0.0559462
0.0021055
-0.0034207
-0.0115426
-0.0176787
-0.0197325
-0.0191657
-0.0183066
-0.0180928
-0.0184426
-0.0189002
-0.019129
-0.0190907
-0.0189622
-0.0189807
-0.0191885
-0.0194388
-0.0196392
-0.0197356
-0.0197146
-0.0197401
-0.0199113
-0.0201078
-0.0202558
-0.0203985
-0.0205649
-0.0207629
-0.0210028
-0.0212904
-0.0215911
-0.0218695
-0.0221477
-0.0224266
-0.0226789
-0.0229379
-0.023251
-0.0235757
-0.0238626
-0.0241226
-0.0244153
-0.0247485
-0.0250524
-0.0252985
-0.0255567
-0.0258978
-0.0263573
-0.0268796
-0.0273997
-0.027833
-0.0281179
-0.0283151
-0.0285611
-0.0288943
-0.0292514
-0.0296174
-0.0300392
-0.0305338
-0.0310217
-0.0314484
-0.0318395
-0.0322483
-0.0327031
-0.0331629
-0.0336132
-0.0340646
-0.0345207
-0.0349764
-0.0354745
-0.0359729
-0.0364588
-0.0369587
-0.0374703
-0.0379616
-0.0384504
-0.0389755
-0.0394994
-0.0400333
-0.0405601
-0.0411309
-0.0417025
-0.0422757
-0.0428237
-0.0434071
-0.0440219
-0.0446773
-0.0453304
-0.0459678
-0.046619
-0.0472546
-0.0479568
-0.0486264
-0.049339
-0.0500606
-0.0507721
-0.0515141
-0.0522399
-0.0529621
-0.0537577
-0.0544796
-0.0551578
-0.0559462
0.00142427
-0.00355774
-0.0113264
-0.0173523
-0.0195372
-0.0190963
-0.0182701
-0.0180594
-0.0184125
-0.0188741
-0.0191075
-0.0190756
-0.0189537
-0.0189765
-0.0191853
-0.0194346
-0.0196342
-0.0197311
-0.0197112
-0.0197373
-0.0199088
-0.0201053
-0.0202534
-0.0203964
-0.020563
-0.0207611
-0.0210013
-0.0212892
-0.0215901
-0.0218685
-0.0221466
-0.0224257
-0.0226781
-0.022937
-0.0232501
-0.0235748
-0.0238617
-0.0241217
-0.0244145
-0.0247477
-0.0250517
-0.0252978
-0.0255559
-0.025897
-0.0263565
-0.026879
-0.0273993
-0.0278328
-0.0281176
-0.0283146
-0.0285605
-0.0288938
-0.029251
-0.0296169
-0.0300388
-0.0305335
-0.0310214
-0.0314482
-0.0318392
-0.032248
-0.0327028
-0.0331627
-0.033613
-0.0340644
-0.0345205
-0.0349762
-0.0354743
-0.0359727
-0.0364587
-0.0369585
-0.0374702
-0.0379615
-0.0384502
-0.0389753
-0.0394992
-0.0400332
-0.0405599
-0.0411308
-0.0417024
-0.0422756
-0.0428235
-0.0434069
-0.0440218
-0.0446772
-0.0453303
-0.0459677
-0.0466189
-0.0472545
-0.0479567
-0.0486264
-0.0493389
-0.0500605
-0.050772
-0.051514
-0.0522399
-0.052962
-0.0537576
-0.0544796
-0.0551577
-0.0559462
0.000752457
-0.00371522
-0.0111043
-0.0170086
-0.0193216
-0.0190175
-0.0182283
-0.0180183
-0.0183725
-0.0188366
-0.0190741
-0.0190506
-0.0189394
-0.0189702
-0.0191814
-0.0194288
-0.0196265
-0.019724
-0.0197064
-0.0197341
-0.0199057
-0.020102
-0.0202504
-0.0203938
-0.0205605
-0.0207587
-0.0209992
-0.0212878
-0.0215891
-0.0218674
-0.0221454
-0.0224246
-0.0226772
-0.0229362
-0.0232492
-0.0235738
-0.0238607
-0.0241209
-0.0244136
-0.0247467
-0.0250507
-0.0252968
-0.0255549
-0.0258959
-0.0263555
-0.0268782
-0.0273989
-0.0278325
-0.0281172
-0.0283139
-0.0285599
-0.0288933
-0.0292505
-0.0296164
-0.0300383
-0.0305331
-0.0310212
-0.0314479
-0.0318389
-0.0322477
-0.0327025
-0.0331624
-0.0336128
-0.0340641
-0.0345202
-0.0349759
-0.0354741
-0.0359725
-0.0364585
-0.0369583
-0.03747
-0.0379613
-0.0384501
-0.0389752
-0.0394991
-0.040033
-0.0405598
-0.0411306
-0.0417023
-0.0422755
-0.0428234
-0.0434068
-0.0440216
-0.0446771
-0.0453302
-0.0459676
-0.0466188
-0.0472543
-0.0479566
-0.0486263
-0.0493388
-0.0500605
-0.0507719
-0.0515139
-0.0522398
-0.0529619
-0.0537575
-0.0544796
-0.0551577
-0.0559463
8.68964e-05
-0.00389743
-0.0108909
-0.016664
-0.0190965
-0.0189341
-0.0181861
-0.0179746
-0.0183272
-0.0187923
-0.0190328
-0.0190181
-0.01892
-0.0189613
-0.0191758
-0.019421
-0.0196157
-0.0197139
-0.0197
-0.0197304
-0.0199021
-0.0200979
-0.0202469
-0.020391
-0.0205577
-0.0207556
-0.0209965
-0.0212858
-0.0215878
-0.0218662
-0.0221439
-0.0224232
-0.0226763
-0.0229357
-0.0232484
-0.0235726
-0.0238596
-0.0241202
-0.024413
-0.0247458
-0.0250495
-0.0252957
-0.0255538
-0.0258947
-0.0263542
-0.0268772
-0.0273984
-0.0278322
-0.0281166
-0.0283131
-0.0285592
-0.0288927
-0.02925
-0.0296158
-0.0300377
-0.0305327
-0.0310209
-0.0314476
-0.0318385
-0.0322472
-0.0327021
-0.0331621
-0.0336125
-0.0340639
-0.03452
-0.0349757
-0.0354739
-0.0359723
-0.0364583
-0.0369581
-0.0374698
-0.0379611
-0.0384499
-0.038975
-0.0394989
-0.0400329
-0.0405596
-0.0411305
-0.0417021
-0.0422754
-0.0428232
-0.0434066
-0.0440215
-0.0446769
-0.04533
-0.0459675
-0.0466187
-0.0472542
-0.0479565
-0.0486262
-0.0493387
-0.0500604
-0.0507719
-0.0515138
-0.0522397
-0.0529619
-0.0537574
-0.0544796
-0.0551577
-0.0559466
-0.000569528
-0.00410532
-0.0106914
-0.0163213
-0.0188619
-0.0188452
-0.0181438
-0.0179298
-0.0182789
-0.0187443
-0.0189875
-0.0189816
-0.0188974
-0.0189501
-0.0191683
-0.0194108
-0.0196021
-0.0197014
-0.0196923
-0.0197261
-0.0198978
-0.0200931
-0.0202429
-0.0203882
-0.020555
-0.0207525
-0.0209934
-0.0212834
-0.0215862
-0.0218646
-0.022142
-0.0224213
-0.0226753
-0.0229353
-0.0232476
-0.0235711
-0.0238583
-0.0241196
-0.0244125
-0.0247448
-0.0250482
-0.0252945
-0.0255527
-0.0258932
-0.0263525
-0.0268759
-0.0273978
-0.0278317
-0.0281159
-0.0283122
-0.0285584
-0.0288921
-0.0292493
-0.0296151
-0.0300369
-0.0305321
-0.0310205
-0.0314472
-0.031838
-0.0322467
-0.0327017
-0.0331618
-0.0336121
-0.0340635
-0.0345196
-0.0349754
-0.0354736
-0.0359721
-0.036458
-0.0369579
-0.0374696
-0.0379609
-0.0384497
-0.0389748
-0.0394987
-0.0400327
-0.0405594
-0.0411303
-0.041702
-0.0422752
-0.0428231
-0.0434064
-0.0440213
-0.0446768
-0.0453299
-0.0459674
-0.0466186
-0.0472541
-0.0479564
-0.0486261
-0.0493385
-0.0500603
-0.0507718
-0.0515138
-0.0522397
-0.0529618
-0.0537574
-0.0544797
-0.0551578
-0.0559469
-0.00121394
-0.00433851
-0.0105086
-0.0159808
-0.018616
-0.0187485
-0.0181009
-0.0178844
-0.0182282
-0.0186936
-0.0189397
-0.0189429
-0.0188728
-0.0189372
-0.0191591
-0.0193987
-0.0195865
-0.019687
-0.0196834
-0.0197213
-0.019893
-0.0200876
-0.0202386
-0.0203856
-0.0205527
-0.0207497
-0.0209904
-0.0212809
-0.0215842
-0.0218627
-0.0221395
-0.0224188
-0.022674
-0.0229348
-0.0232465
-0.0235691
-0.0238566
-0.0241191
-0.0244123
-0.0247438
-0.0250469
-0.0252936
-0.0255519
-0.0258917
-0.0263503
-0.0268741
-0.0273967
-0.0278309
-0.0281148
-0.0283111
-0.0285575
-0.0288914
-0.0292486
-0.0296142
-0.0300361
-0.0305314
-0.0310199
-0.0314466
-0.0318374
-0.0322461
-0.0327011
-0.0331613
-0.0336117
-0.034063
-0.0345192
-0.034975
-0.0354733
-0.0359718
-0.0364578
-0.0369577
-0.0374694
-0.0379607
-0.0384494
-0.0389746
-0.0394986
-0.0400325
-0.0405592
-0.0411301
-0.0417018
-0.0422751
-0.0428229
-0.0434062
-0.0440211
-0.0446766
-0.0453298
-0.0459672
-0.0466185
-0.0472539
-0.0479562
-0.0486259
-0.0493384
-0.0500602
-0.0507716
-0.0515137
-0.0522396
-0.0529617
-0.0537573
-0.0544798
-0.055158
-0.0559473
-0.00184271
-0.00459487
-0.0103448
-0.0156442
-0.0183579
-0.0186417
-0.0180566
-0.0178387
-0.0181753
-0.0186404
-0.0188899
-0.0189024
-0.0188468
-0.0189231
-0.0191488
-0.0193854
-0.0195694
-0.0196713
-0.0196737
-0.019716
-0.0198878
-0.0200816
-0.020234
-0.0203831
-0.0205509
-0.0207475
-0.0209879
-0.0212787
-0.0215823
-0.0218605
-0.0221365
-0.0224159
-0.0226724
-0.0229342
-0.023245
-0.0235664
-0.0238544
-0.0241183
-0.024412
-0.0247427
-0.0250454
-0.0252928
-0.0255516
-0.0258905
-0.0263481
-0.0268719
-0.0273953
-0.0278296
-0.0281131
-0.0283096
-0.0285566
-0.0288908
-0.0292479
-0.0296134
-0.0300351
-0.0305305
-0.0310192
-0.0314459
-0.0318367
-0.0322453
-0.0327004
-0.0331607
-0.0336111
-0.0340624
-0.0345186
-0.0349746
-0.0354729
-0.0359714
-0.0364574
-0.0369574
-0.0374692
-0.0379605
-0.0384492
-0.0389744
-0.0394983
-0.0400323
-0.040559
-0.0411299
-0.0417016
-0.0422749
-0.0428227
-0.0434059
-0.0440209
-0.0446765
-0.0453296
-0.045967
-0.0466183
-0.0472537
-0.0479561
-0.0486258
-0.0493383
-0.0500601
-0.0507715
-0.0515136
-0.0522395
-0.0529617
-0.0537572
-0.0544799
-0.0551584
-0.0559478
-0.00245194
-0.00487212
-0.0102034
-0.0153139
-0.0180873
-0.0185223
-0.0180096
-0.0177933
-0.0181209
-0.018585
-0.0188382
-0.0188603
-0.0188196
-0.0189081
-0.0191376
-0.019371
-0.0195511
-0.0196544
-0.0196632
-0.0197103
-0.0198821
-0.0200753
-0.0202292
-0.0203805
-0.0205493
-0.0207457
-0.020986
-0.0212769
-0.0215805
-0.0218581
-0.0221331
-0.0224126
-0.0226708
-0.0229336
-0.0232433
-0.0235631
-0.0238515
-0.0241172
-0.0244115
-0.0247413
-0.0250436
-0.0252923
-0.025552
-0.0258901
-0.0263464
-0.0268699
-0.0273937
-0.0278276
-0.0281106
-0.0283074
-0.0285555
-0.0288903
-0.0292473
-0.0296127
-0.0300343
-0.0305296
-0.0310183
-0.031445
-0.0318357
-0.0322443
-0.0326995
-0.0331599