/*--------------------------------*- C++ -*----------------------------------*\
| =========                 |                                                 |
| \\      /  F ield         | OpenFOAM: The Open Source CFD Toolbox           |
|  \\    /   O peration     | Version:  2506                                  |
|   \\  /    A nd           | Website:  www.openfoam.com                      |
|    \\/     M anipulation  |                                                 |
\*---------------------------------------------------------------------------*/
FoamFile
{
    version     2.0;
    format      ascii;
    arch        "LSB;label=32;scalar=64";
    class       volVectorField;
    location    "9.45";
    object      U;
}
// * * * * * * * * * * * * * * * * * * * * * * * * * * * * * * * * * * * * * //

dimensions      [0 1 -1 0 0 0 0];

internalField   nonuniform List<vector> 
9600
(
(0.862025 0.00772916 0)
(1.22277 -0.0085787 0)
(0.612936 0.00760907 0)
(1.33024 0.0239172 0)
(0.821588 0.00199384 0)
(1.07746 -0.0118505 0)
(0.803164 0.012087 0)
(1.25079 0.00397162 0)
(0.675212 0.0132599 0)
(1.27657 0.0158139 0)
(0.68656 -0.00253551 0)
(1.19545 0.0176437 0)
(0.800978 0.00994173 0)
(1.12419 0.0193858 0)
(0.821659 0.00880906 0)
(1.10126 0.00743723 0)
(0.848604 -1.2718e-05 0)
(1.10714 0.00174238 0)
(0.854945 -0.00162354 0)
(1.11372 0.000723148 0)
(0.865412 0.00707271 0)
(1.21641 -0.0064111 0)
(0.616054 0.00678638 0)
(1.32255 0.022648 0)
(0.841651 0.00450951 0)
(1.07707 -0.0113616 0)
(0.807824 0.00993299 0)
(1.24519 0.00595646 0)
(0.684116 0.0127847 0)
(1.26319 0.0161564 0)
(0.715901 -0.00184494 0)
(1.17815 0.0165548 0)
(0.841093 0.0107412 0)
(1.09479 0.0195171 0)
(0.87989 0.00926405 0)
(1.05032 0.00697895 0)
(0.925013 -0.000351851 0)
(1.03083 0.00118849 0)
(0.960204 -0.00107719 0)
(0.999758 0.000736353 0)
(0.872746 0.00642916 0)
(1.20571 -0.00439828 0)
(0.629346 0.00540458 0)
(1.30215 0.0211306 0)
(0.875968 0.00621852 0)
(1.07053 -0.0108257 0)
(0.821067 0.00768319 0)
(1.23042 0.00781758 0)
(0.715204 0.0118886 0)
(1.22942 0.0162855 0)
(0.780374 -0.00100575 0)
(1.13169 0.0147759 0)
(0.905633 0.0121137 0)
(1.04883 0.0190296 0)
(0.938832 0.0100692 0)
(1.00438 0.00600997 0)
(0.967936 0.000223665 0)
(0.992921 0.000186847 0)
(0.98516 -9.36074e-05 0)
(0.982822 0.000791415 0)
(0.884019 0.00585671 0)
(1.19036 -0.00250556 0)
(0.657555 0.00423836 0)
(1.26553 0.0194301 0)
(0.920457 0.0079248 0)
(1.05604 -0.0100142 0)
(0.845295 0.00586838 0)
(1.20216 0.00920802 0)
(0.771431 0.0114704 0)
(1.17611 0.0157061 0)
(0.861922 0.000237556 0)
(1.07057 0.0130116 0)
(0.956326 0.0132552 0)
(1.01335 0.018529 0)
(0.967707 0.010786 0)
(0.983793 0.00551388 0)
(0.976451 0.000405298 0)
(0.982131 -0.000179054 0)
(0.982955 0.000241458 0)
(0.981317 0.00120204 0)
(0.89868 0.00530063 0)
(1.16994 -0.000740085 0)
(0.702283 0.0034506 0)
(1.21292 0.0174693 0)
(0.967067 0.00954165 0)
(1.03692 -0.00899603 0)
(0.877823 0.00423379 0)
(1.16075 0.0100727 0)
(0.841266 0.0116688 0)
(1.11641 0.0146343 0)
(0.93173 0.00173297 0)
(1.01982 0.0117575 0)
(0.979271 0.0138754 0)
(0.995534 0.0184672 0)
(0.977558 0.0113574 0)
(0.978325 0.00536145 0)
(0.976316 0.000534107 0)
(0.978257 -0.000483015 0)
(0.98018 0.000482556 0)
(0.979226 0.00151083 0)
(0.91557 0.00477318 0)
(1.14478 0.000807013 0)
(0.759902 0.0030249 0)
(1.15051 0.0153599 0)
(1.00586 0.0108934 0)
(1.01975 -0.00787501 0)
(0.911121 0.00287495 0)
(1.11264 0.0104317 0)
(0.90611 0.0121789 0)
(1.06659 0.0135408 0)
(0.975241 0.00310958 0)
(0.991476 0.0112477 0)
(0.983654 0.0141155 0)
(0.988419 0.0185444 0)
(0.982134 0.0117894 0)
(0.979635 0.00535071 0)
(0.977274 0.000671705 0)
(0.977698 -0.00072584 0)
(0.979507 0.000653001 0)
(0.979108 0.00181039 0)
(0.93298 0.00431009 0)
(1.1167 0.00201958 0)
(0.821876 0.00297167 0)
(1.0896 0.0133117 0)
(1.03028 0.0118367 0)
(1.00988 -0.00672463 0)
(0.937681 0.00196939 0)
(1.06752 0.0103511 0)
(0.952835 0.0126916 0)
(1.03425 0.0127531 0)
(0.995218 0.00421047 0)
(0.981258 0.011312 0)
(0.982002 0.0141476 0)
(0.985603 0.0184736 0)
(0.985746 0.0120538 0)
(0.98392 0.00538567 0)
(0.980433 0.000864119 0)
(0.97968 -0.0008611 0)
(0.980547 0.000763892 0)
(0.980604 0.00210597 0)
(0.949089 0.00393558 0)
(1.08876 0.00285275 0)
(0.878631 0.00325041 0)
(1.04124 0.0115356 0)
(1.03981 0.012316 0)
(1.00805 -0.00560325 0)
(0.954694 0.0015362 0)
(1.03304 0.00996391 0)
(0.978731 0.0130376 0)
(1.01683 0.0123135 0)
(1.00159 0.00505443 0)
(0.979869 0.0116294 0)
(0.980545 0.0141083 0)
(0.98451 0.0182423 0)
(0.988557 0.0121452 0)
(0.988681 0.00539558 0)
(0.984921 0.0011098 0)
(0.983249 -0.000873497 0)
(0.982953 0.000852044 0)
(0.982844 0.00240167 0)
(0.962591 0.00365752 0)
(1.06397 0.00334451 0)
(0.923831 0.00373877 0)
(1.01082 0.010151 0)
(1.03862 0.0123682 0)
(1.01084 -0.00456142 0)
(0.964257 0.00149421 0)
(1.01167 0.00943686 0)
(0.988707 0.0131916 0)
(1.00815 0.0120804 0)
(1.00292 0.00570706 0)
(0.981345 0.0120071 0)
(0.980576 0.0140872 0)
(0.984542 0.0179156 0)
(0.990784 0.0120851 0)
(0.992844 0.00534961 0)
(0.98972 0.00135979 0)
(0.987659 -0.000788567 0)
(0.986397 0.000961086 0)
(0.985663 0.00273585 0)
(0.97307 0.00346921 0)
(1.04406 0.00357069 0)
(0.95584 0.0042915 0)
(0.996824 0.00916305 0)
(1.03235 0.0121242 0)
(1.01401 -0.00363242 0)
(0.970233 0.00172445 0)
(1.00135 0.00890505 0)
(0.990274 0.0132178 0)
(1.00369 0.0118991 0)
(1.00354 0.00621598 0)
(0.983686 0.0123922 0)
(0.982055 0.0141082 0)
(0.985842 0.0175289 0)
(0.993152 0.0119192 0)
(0.996559 0.00524859 0)
(0.994318 0.00155942 0)
(0.992309 -0.000632999 0)
(0.990479 0.00111424 0)
(0.989051 0.00311592 0)
(0.980857 0.00335399 0)
(1.02919 0.00361779 0)
(0.97647 0.00479991 0)
(0.993911 0.00850395 0)
(1.02542 0.0117398 0)
(1.01513 -0.00283138 0)
(0.975407 0.00209993 0)
(0.998137 0.00843848 0)
(0.989667 0.0131977 0)
(1.00157 0.011687 0)
(1.00461 0.00660841 0)
(0.98658 0.0127764 0)
(0.984904 0.0141447 0)
(0.98862 0.0171133 0)
(0.99623 0.0116947 0)
(1.00022 0.00510143 0)
(0.998599 0.00170192 0)
(0.996731 -0.000426422 0)
(0.994698 0.00130138 0)
(0.992765 0.00350206 0)
(0.986582 0.00329448 0)
(1.01852 0.0035551 0)
(0.988895 0.00520405 0)
(0.996503 0.00808208 0)
(1.02003 0.011336 0)
(1.01394 -0.00215844 0)
(0.980729 0.00251193 0)
(0.998484 0.00804866 0)
(0.990126 0.0131763 0)
(1.00127 0.011438 0)
(1.00602 0.00690768 0)
(0.989919 0.0131387 0)
(0.988857 0.0141664 0)
(0.992664 0.0166961 0)
(1.00003 0.0114387 0)
(1.0039 0.0049442 0)
(1.00247 0.00181427 0)
(1.00059 -0.000182183 0)
(0.998563 0.00150777 0)
(0.996378 0.00386322 0)
(0.990811 0.00327477 0)
(1.01103 0.00343261 0)
(0.996082 0.00548581 0)
(1.00071 0.00781192 0)
(1.01654 0.010996 0)
(1.01142 -0.00159552 0)
(0.986 0.00289037 0)
(1.0001 0.00771464 0)
(0.992213 0.0131579 0)
(1.00238 0.0111891 0)
(1.00754 0.00713449 0)
(0.993446 0.0134546 0)
(0.993384 0.0141561 0)
(0.997339 0.0162855 0)
(1.00411 0.0111788 0)
(1.00736 0.00481681 0)
(1.00576 0.00192625 0)
(1.00368 8.70664e-05 0)
(1.00172 0.0017324 0)
(0.999478 0.0042122 0)
(0.993934 0.00328184 0)
(1.00591 0.00328188 0)
(1.00013 0.0056558 0)
(1.00449 0.00763337 0)
(1.01453 0.0107428 0)
(1.00865 -0.0011241 0)
(0.990743 0.00320386 0)
(1.00182 0.00741244 0)
(0.995135 0.0131281 0)
(1.00424 0.0109777 0)
(1.00898 0.00730468 0)
(0.996807 0.0137134 0)
(0.997863 0.014101 0)
(1.00191 0.0158856 0)
(1.00791 0.0109436 0)
(1.0103 0.00473892 0)
(1.00834 0.00205817 0)
(1.00593 0.000370125 0)
(1.00404 0.00198766 0)
(1.00182 0.00456656 0)
(0.996222 0.0033047 0)
(1.00256 0.0031221 0)
(1.0023 0.00573932 0)
(1.00706 0.00750588 0)
(1.01342 0.0105649 0)
(1.00631 -0.00072458 0)
(0.994671 0.00344973 0)
(1.00313 0.00712864 0)
(0.997933 0.0130736 0)
(1.00613 0.010818 0)
(1.01016 0.00743122 0)
(0.999653 0.0139132 0)
(1.00177 0.0139989 0)
(1.00583 0.0155032 0)
(1.01103 0.0107494 0)
(1.01258 0.00471499 0)
(1.0102 0.00222935 0)
(1.00742 0.000663181 0)
(1.00556 0.00226553 0)
(1.0034 0.00490761 0)
(0.997898 0.00333413 0)
(1.00052 0.00296597 0)
(1.00331 0.00576267 0)
(1.0084 0.00740586 0)
(1.01275 0.010436 0)
(1.00465 -0.000376176 0)
(0.997754 0.00364071 0)
(1.00396 0.00686161 0)
(1.00004 0.0129858 0)
(1.00757 0.0107113 0)
(1.01095 0.0075197 0)
(1.00175 0.0140612 0)
(1.00478 0.0138533 0)
(1.00882 0.0151411 0)
(1.01332 0.0105996 0)
(1.01419 0.0047337 0)
(1.01144 0.00246243 0)
(1.00833 0.000974845 0)
(1.00648 0.00254098 0)
(1.00434 0.00522315 0)
(0.999133 0.00336301 0)
(0.999374 0.00282156 0)
(1.00364 0.00574914 0)
(1.00879 0.00731861 0)
(1.01228 0.0103308 0)
(1.00361 -6.17041e-05 0)
(1.00013 0.00379106 0)
(1.00444 0.0066182 0)
(1.00132 0.0128619 0)
(1.00836 0.0106542 0)
(1.0113 0.00757284 0)
(1.00307 0.0141654 0)
(1.00686 0.0136701 0)
(1.0109 0.0147946 0)
(1.01483 0.0104939 0)
(1.01524 0.00477815 0)
(1.01222 0.0027636 0)
(1.00885 0.00131721 0)
(1.00701 0.00280328 0)
(1.00487 0.00553607 0)
(1.00002 0.00338624 0)
(0.998809 0.00269407 0)
(1.0036 0.00571537 0)
(1.00859 0.00723676 0)
(1.01189 0.0102279 0)
(1.00304 0.000229497 0)
(1.00195 0.00391326 0)
(1.00476 0.00640674 0)
(1.00193 0.0127089 0)
(1.00856 0.0106383 0)
(1.01129 0.00759609 0)
(1.00376 0.0142308 0)
(1.00815 0.0134578 0)
(1.01224 0.0144481 0)
(1.01571 0.0104363 0)
(1.01586 0.00483327 0)
(1.01268 0.00311197 0)
(1.00915 0.00169728 0)
(1.00733 0.00304199 0)
(1.00521 0.00585533 0)
(1.00061 0.00340068 0)
(0.998638 0.002586 0)
(1.00342 0.00567129 0)
(1.00807 0.00715794 0)
(1.01157 0.010111 0)
(1.0028 0.000505896 0)
(1.00332 0.00401309 0)
(1.00501 0.00623451 0)
(1.00208 0.0125341 0)
(1.00835 0.0106568 0)
(1.01106 0.007592 0)
(1.00408 0.014261 0)
(1.00885 0.0132295 0)
(1.01305 0.0140818 0)
(1.0161 0.0104204 0)
(1.01616 0.00489569 0)
(1.01288 0.00347659 0)
(1.00931 0.00212474 0)
(1.00753 0.00325058 0)
(1.00547 0.00615793 0)
(1.00092 0.00340475 0)
(0.998742 0.0024968 0)
(1.0032 0.0056241 0)
(1.0074 0.00708126 0)
(1.01133 0.00996781 0)
(1.00279 0.000778509 0)
(1.00429 0.00409552 0)
(1.00518 0.00610424 0)
(1.00195 0.0123435 0)
(1.00792 0.0107035 0)
(1.01075 0.00756228 0)
(1.00424 0.0142564 0)
(1.00912 0.0129955 0)
(1.01346 0.0136842 0)
(1.01609 0.0104438 0)
(1.01621 0.00496755 0)
(1.01287 0.00382827 0)
(1.00938 0.00260758 0)
(1.00768 0.00343654 0)
(1.00573 0.00641795 0)
(1.00103 0.00339723 0)
(0.99902 0.0024264 0)
(1.00299 0.00557595 0)
(1.00672 0.00700817 0)
(1.01114 0.00979136 0)
(1.00295 0.00105456 0)
(1.00489 0.00416952 0)
(1.00529 0.00601074 0)
(1.00166 0.0121418 0)
(1.00744 0.0107704 0)
(1.01045 0.00751197 0)
(1.00437 0.0142163 0)
(1.00909 0.0127691 0)
(1.01357 0.0132533 0)
(1.01576 0.0104971 0)
(1.01606 0.00505378 0)
(1.01272 0.00413976 0)
(1.00939 0.00314324 0)
(1.0078 0.00361935 0)
(1.00605 0.00661988 0)
(1.001 0.00337763 0)
(0.999372 0.00237374 0)
(1.00281 0.00552826 0)
(1.00613 0.00693848 0)
(1.01097 0.00957843 0)
(1.00319 0.0013405 0)
(1.00519 0.00423554 0)
(1.00536 0.00595207 0)
(1.00131 0.011927 0)
(1.00701 0.0108507 0)
(1.0102 0.00744268 0)
(1.00454 0.0141429 0)
(1.00885 0.0125727 0)
(1.01349 0.0127925 0)
(1.0152 0.0105653 0)
(1.01575 0.00516563 0)
(1.01248 0.00438818 0)
(1.00937 0.00371453 0)
(1.0079 0.00382061 0)
(1.00641 0.00674436 0)
(1.00092 0.00334588 0)
(0.999733 0.00233784 0)
(1.00264 0.00547951 0)
(1.00571 0.00687518 0)
(1.01077 0.00932734 0)
(1.00343 0.00164243 0)
(1.00528 0.00429594 0)
(1.00547 0.00592206 0)
(1.00097 0.0117011 0)
(1.00667 0.0109337 0)
(1.01 0.00736256 0)
(1.00477 0.0140369 0)
(1.00852 0.0124236 0)
(1.01333 0.0123045 0)
(1.01454 0.0106354 0)
(1.01536 0.00532192 0)
(1.0122 0.0045643 0)
(1.00933 0.00429244 0)
(1.00798 0.00406196 0)
(1.00683 0.00677684 0)
(1.0008 0.00330175 0)
(1.00008 0.00232027 0)
(1.00249 0.00542196 0)
(1.00549 0.00682448 0)
(1.01051 0.00903964 0)
(1.00364 0.00196353 0)
(1.00525 0.00435413 0)
(1.00567 0.00591098 0)
(1.00069 0.0114707 0)
(1.00645 0.0110089 0)
(1.00984 0.00728969 0)
(1.00505 0.0138929 0)
(1.00818 0.0123234 0)
(1.01315 0.0118034 0)
(1.01388 0.0106903 0)
(1.01494 0.00552989 0)
(1.01195 0.00467708 0)
(1.00929 0.00484431 0)
(1.00805 0.00436656 0)
(1.00727 0.00672155 0)
(1.00067 0.00324506 0)
(1.0004 0.00232167 0)
(1.00234 0.00535069 0)
(1.00545 0.00678762 0)
(1.01021 0.00872117 0)
(1.00379 0.00230033 0)
(1.00514 0.00440479 0)
(1.00596 0.00591417 0)
(1.00051 0.011236 0)
(1.0063 0.0110738 0)
(1.00972 0.00722663 0)
(1.00534 0.0137169 0)
(1.00786 0.0122656 0)
(1.013 0.0113073 0)
(1.0133 0.0107168 0)
(1.01449 0.00578912 0)
(1.01175 0.00474212 0)
(1.00926 0.00534013 0)
(1.0081 0.0047493 0)
(1.00772 0.00659797 0)
(1.00052 0.00317616 0)
(1.00071 0.00234114 0)
(1.00219 0.0052638 0)
(1.00553 0.00676413 0)
(1.00986 0.00838046 0)
(1.00389 0.0026448 0)
(1.00501 0.00445182 0)
(1.00629 0.00592542 0)
(1.00041 0.0110006 0)
(1.0062 0.0111231 0)
(1.00965 0.0071724 0)
(1.00562 0.0135118 0)
(1.00759 0.0122445 0)
(1.01287 0.0108277 0)
(1.01282 0.0107059 0)
(1.01405 0.00610285 0)
(1.0116 0.00477879 0)
(1.00924 0.00575643 0)
(1.00813 0.00521736 0)
(1.00816 0.00645464 0)
(1.00037 0.00309413 0)
(1.001 0.00238084 0)
(1.00207 0.00515647 0)
(1.00566 0.0067576 0)
(1.00948 0.00802001 0)
(1.00394 0.00299659 0)
(1.00487 0.00449777 0)
(1.00663 0.0059358 0)
(1.00041 0.0107768 0)
(1.0061 0.0111535 0)
(1.00961 0.0071288 0)
(1.00587 0.0132723 0)
(1.00736 0.0122573 0)
(1.01274 0.0103763 0)
(1.01244 0.0106521 0)
(1.0136 0.00646955 0)
(1.01151 0.00480858 0)
(1.00927 0.00606622 0)
(1.00814 0.00575275 0)
(1.00854 0.00635734 0)
(1.00022 0.0029993 0)
(1.00124 0.00243933 0)
(1.00199 0.00502774 0)
(1.00582 0.00676911 0)
(1.0091 0.0076424 0)
(1.00395 0.00334781 0)
(1.00474 0.0045444 0)
(1.00693 0.00593069 0)
(1.00049 0.0105728 0)
(1.00597 0.0111703 0)
(1.00962 0.00710092 0)
(1.00609 0.0129965 0)
(1.00715 0.0122953 0)
(1.01262 0.00995692 0)
(1.01217 0.0105445 0)
(1.01315 0.00687892 0)
(1.01146 0.00485913 0)
(1.00934 0.00625362 0)
(1.00815 0.00631254 0)
(1.00886 0.00637306 0)
(1.00011 0.00289232 0)
(1.00141 0.0025157 0)
(1.00197 0.00487814 0)
(1.00595 0.00679463 0)
(1.00872 0.00725878 0)
(1.00393 0.003692 0)
(1.00463 0.00460086 0)
(1.00719 0.005904 0)
(1.00063 0.0103857 0)
(1.00579 0.0111773 0)
(1.00966 0.00708433 0)
(1.00629 0.0126881 0)
(1.00695 0.0123461 0)
(1.0125 0.00957441 0)
(1.01198 0.0103763 0)
(1.01273 0.00731213 0)
(1.01141 0.00495742 0)
(1.00948 0.00632188 0)
(1.00817 0.00683946 0)
(1.00909 0.00655036 0)
(1.00004 0.00277354 0)
(1.00151 0.00260871 0)
(1.00199 0.00470737 0)
(1.00606 0.00683366 0)
(1.00837 0.00687557 0)
(1.00388 0.00401957 0)
(1.00453 0.00468108 0)
(1.0074 0.00584649 0)
(1.00082 0.0102128 0)
(1.00558 0.0111769 0)
(1.00971 0.0070769 0)
(1.00649 0.0123569 0)
(1.00676 0.012408 0)
(1.01236 0.00924333 0)
(1.01187 0.0101542 0)
(1.01232 0.00775374 0)
(1.01136 0.0051274 0)
(1.00968 0.00629151 0)
(1.00823 0.00726961 0)
(1.00923 0.00689103 0)
(1.00001 0.00264357 0)
(1.00154 0.00271716 0)
(1.00205 0.00451832 0)
(1.00615 0.00688067 0)
(1.00806 0.00649692 0)
(1.00381 0.00432359 0)
(1.00446 0.00478327 0)
(1.00757 0.00576151 0)
(1.00104 0.0100426 0)
(1.00536 0.0111799 0)
(1.00976 0.00707667 0)
(1.0067 0.0120055 0)
(1.00656 0.0124813 0)
(1.01221 0.00896863 0)
(1.01183 0.00987206 0)
(1.01196 0.00818634 0)
(1.01127 0.00538587 0)
(1.00992 0.00620232 0)
(1.00835 0.00755337 0)
(1.00929 0.00734505 0)
(1.00003 0.00250445 0)
(1.00151 0.00283811 0)
(1.00213 0.00431234 0)
(1.0062 0.00693252 0)
(1.00778 0.006132 0)
(1.00372 0.00459764 0)
(1.00439 0.00491933 0)
(1.00771 0.00565391 0)
(1.00128 0.00986464 0)
(1.00512 0.0111903 0)
(1.0098 0.00707737 0)
(1.00694 0.0116268 0)
(1.00635 0.0125569 0)
(1.01204 0.00876173 0)
(1.01185 0.0095253 0)
(1.01163 0.00858714 0)
(1.01113 0.00573601 0)
(1.01018 0.00610363 0)
(1.00854 0.00767357 0)
(1.00931 0.00781198 0)
(1.00007 0.00235484 0)
(1.00145 0.00297313 0)
(1.00221 0.00409439 0)
(1.00623 0.00697737 0)
(1.00754 0.00579158 0)
(1.00362 0.0048247 0)
(1.00432 0.00509824 0)
(1.00783 0.0055315 0)
(1.00153 0.0096761 0)
(1.00489 0.0112062 0)
(1.00981 0.00708513 0)
(1.00721 0.0112142 0)
(1.00614 0.0126169 0)
(1.01182 0.00864567 0)
(1.01191 0.00913044 0)
(1.01136 0.00892891 0)
(1.01092 0.00616817 0)
(1.01041 0.00604449 0)
(1.0088 0.0076608 0)
(1.00933 0.00819029 0)
(1.00012 0.00219648 0)
(1.00137 0.00312105 0)
(1.00227 0.00386919 0)
(1.00623 0.00700393 0)
(1.00732 0.00548349 0)
(1.00352 0.00499356 0)
(1.00425 0.00531309 0)
(1.00794 0.00541691 0)
(1.00179 0.00946866 0)
(1.00466 0.0112315 0)
(1.0098 0.00711207 0)
(1.00752 0.0107674 0)
(1.00593 0.0126474 0)
(1.01154 0.00863233 0)
(1.01199 0.00870798 0)
(1.01116 0.00917937 0)
(1.01067 0.00665761 0)
(1.0106 0.00605095 0)
(1.00911 0.00756913 0)
(1.00939 0.00841861 0)
(1.00017 0.00203208 0)
(1.00128 0.0032704 0)
(1.00233 0.00365061 0)
(1.0062 0.00700397 0)
(1.00712 0.00521965 0)
(1.00343 0.0050978 0)
(1.00416 0.00555483 0)
(1.00803 0.00530581 0)
(1.00205 0.00922968 0)
(1.00445 0.0112649 0)
(1.00975 0.00717426 0)
(1.00785 0.0102964 0)
(1.00574 0.0126354 0)
(1.0112 0.00871801 0)
(1.01209 0.00828603 0)
(1.01103 0.00931851 0)
(1.01037 0.00718486 0)
(1.01071 0.00612764 0)
(1.00945 0.0074526 0)
(1.00951 0.00851237 0)
(1.00023 0.00186004 0)
(1.00119 0.00342682 0)
(1.00237 0.00344054 0)
(1.00616 0.00696141 0)
(1.00692 0.00501742 0)
(1.00334 0.00514022 0)
(1.00407 0.00580608 0)
(1.00811 0.00522219 0)
(1.00233 0.00895518 0)
(1.00425 0.0112841 0)
(1.00966 0.00727705 0)
(1.0082 0.00981124 0)
(1.00559 0.012566 0)
(1.01081 0.00889384 0)
(1.01217 0.00790069 0)
(1.01098 0.009328 0)
(1.01004 0.00772859 0)
(1.01075 0.00627594 0)
(1.00979 0.00732475 0)
(1.0097 0.00852725 0)
(1.00027 0.00168384 0)
(1.00109 0.00358137 0)
(1.00239 0.00324705 0)
(1.0061 0.00686585 0)
(1.00673 0.00488516 0)
(1.00326 0.00513066 0)
(1.00396 0.00605451 0)
(1.00816 0.00518218 0)
(1.00262 0.0086475 0)
(1.00407 0.0112732 0)
(1.00952 0.00742157 0)
(1.00855 0.00933103 0)
(1.00549 0.0124169 0)
(1.01036 0.00913767 0)
(1.01223 0.00759125 0)
(1.01102 0.00920419 0)
(1.00973 0.00826007 0)
(1.01069 0.00652494 0)
(1.01012 0.00717713 0)
(1.00995 0.00848023 0)
(1.00031 0.00150573 0)
(1.00099 0.00372506 0)
(1.00239 0.00308723 0)
(1.00603 0.00670004 0)
(1.00652 0.00482142 0)
(1.00319 0.00508222 0)
(1.00385 0.00628112 0)
(1.00818 0.00518609 0)
(1.00291 0.00831621 0)
(1.00391 0.0112268 0)
(1.00935 0.00759979 0)
(1.0089 0.00887723 0)
(1.00545 0.0121838 0)
(1.00988 0.0094214 0)
(1.01224 0.0073872 0)
(1.01114 0.00895605 0)
(1.00945 0.00871946 0)
(1.01053 0.00689524 0)
(1.01041 0.00704455 0)
(1.01026 0.00835116 0)
(1.00035 0.0013269 0)
(1.00089 0.0038573 0)
(1.00237 0.00295968 0)
(1.00596 0.00646766 0)
(1.00631 0.00481614 0)
(1.00313 0.00501165 0)
(1.00373 0.00647121 0)
(1.00817 0.00524897 0)
(1.00322 0.00797878 0)
(1.00378 0.0111346 0)
(1.00913 0.00780685 0)
(1.00924 0.00846585 0)
(1.00547 0.0118768 0)
(1.00937 0.00971396 0)
(1.01219 0.00730255 0)
(1.01134 0.00862206 0)
(1.00924 0.00905056 0)
(1.01029 0.00735544 0)
(1.01062 0.00699102 0)
(1.01063 0.00812625 0)
(1.00038 0.00115197 0)
(1.00078 0.00396595 0)
(1.00233 0.00287436 0)
(1.00588 0.00617001 0)
(1.00609 0.00484969 0)
(1.00306 0.00494448 0)
(1.00361 0.00660041 0)
(1.00813 0.00535742 0)
(1.00353 0.0076531 0)
(1.00368 0.0109909 0)
(1.00888 0.00803434 0)
(1.00955 0.00810952 0)
(1.00557 0.0115081 0)
(1.00887 0.00998556 0)
(1.01204 0.00733462 0)
(1.01159 0.00825857 0)
(1.00914 0.00923419 0)
(1.00999 0.00784446 0)
(1.01072 0.0070628 0)
(1.01101 0.00785488 0)
(1.0004 0.000981602 0)
(1.00067 0.00404966 0)
(1.00227 0.00283436 0)
(1.00579 0.00581975 0)
(1.00587 0.00489653 0)
(1.00299 0.00489856 0)
(1.0035 0.00666673 0)
(1.00805 0.00549149 0)
(1.00383 0.0073551 0)
(1.00362 0.0107859 0)
(1.00859 0.00825696 0)
(1.00982 0.00781595 0)
(1.00574 0.011087 0)
(1.00839 0.0102054 0)
(1.01181 0.00746306 0)
(1.01185 0.00790802 0)
(1.00915 0.00927549 0)
(1.00968 0.0083078 0)
(1.01069 0.00725479 0)
(1.01136 0.00761286 0)
(1.00042 0.000819631 0)
(1.00055 0.00409975 0)
(1.00217 0.00284182 0)
(1.0057 0.00543029 0)
(1.00564 0.00494317 0)
(1.00292 0.00488705 0)
(1.00339 0.00666733 0)
(1.00794 0.00563127 0)
(1.00412 0.00709994 0)
(1.00359 0.0105294 0)
(1.00827 0.00845209 0)
(1.01003 0.00759501 0)
(1.00597 0.0106353 0)
(1.00795 0.0103597 0)
(1.01149 0.00767275 0)
(1.01209 0.00760081 0)
(1.00927 0.00918149 0)
(1.00938 0.00870845 0)
(1.01055 0.00753033 0)
(1.01164 0.00745943 0)
(1.00044 0.000671285 0)
(1.00043 0.00410672 0)
(1.00204 0.00289473 0)
(1.0056 0.0050264 0)
(1.00543 0.00496158 0)
(1.00282 0.00492993 0)
(1.00327 0.00660809 0)
(1.00782 0.00575197 0)
(1.00438 0.0069017 0)
(1.00359 0.0102547 0)
(1.00795 0.00860614 0)
(1.01019 0.00743616 0)
(1.00625 0.010182 0)
(1.00758 0.0104519 0)
(1.0111 0.00794843 0)
(1.01229 0.00736538 0)
(1.00949 0.00896374 0)
(1.00915 0.00902223 0)
(1.0103 0.00785672 0)
(1.01179 0.00741474 0)
(1.00044 0.000537216 0)
(1.00031 0.00407003 0)
(1.00188 0.0029876 0)
(1.0055 0.00463023 0)
(1.00523 0.00492992 0)
(1.00272 0.00502643 0)
(1.00316 0.00652207 0)
(1.00767 0.00584581 0)
(1.00463 0.00674926 0)
(1.00362 0.00998224 0)
(1.00761 0.00871844 0)
(1.01029 0.00731096 0)
(1.00658 0.00973503 0)
(1.00729 0.0104782 0)
(1.01064 0.00825415 0)
(1.0124 0.00722125 0)
(1.00981 0.00864544 0)
(1.009 0.00921457 0)
(1.00999 0.00820639 0)
(1.0118 0.00746654 0)
(1.00044 0.000420143 0)
(1.00021 0.00398782 0)
(1.00169 0.00311286 0)
(1.00537 0.0042535 0)
(1.00506 0.0048453 0)
(1.0026 0.00515796 0)
(1.00303 0.00642323 0)
(1.00751 0.0059022 0)
(1.00486 0.0066325 0)
(1.00367 0.00972667 0)
(1.00727 0.00880777 0)
(1.01032 0.00721434 0)
(1.00693 0.00929505 0)
(1.00708 0.0104374 0)
(1.01015 0.0085572 0)
(1.01241 0.00718054 0)
(1.01017 0.00827221 0)
(1.00897 0.00924952 0)
(1.00964 0.00854452 0)
(1.01167 0.00759445 0)
(1.00044 0.000324287 0)
(1.00011 0.00385472 0)
(1.00148 0.00326132 0)
(1.00523 0.00392232 0)
(1.00491 0.00469359 0)
(1.00247 0.00530662 0)
(1.00288 0.00634773 0)
(1.00735 0.00589741 0)
(1.00507 0.00652879 0)
(1.00374 0.0094944 0)
(1.00691 0.00888377 0)
(1.01029 0.00715817 0)
(1.0073 0.00885859 0)
(1.00696 0.010321 0)
(1.00963 0.00883316 0)
(1.0123 0.00723946 0)
(1.01054 0.00790668 0)
(1.00908 0.00911849 0)
(1.00932 0.00882479 0)
(1.01143 0.00778417 0)
(1.00043 0.000251146 0)
(1.00003 0.00366938 0)
(1.00124 0.00342758 0)
(1.00506 0.00364275 0)
(1.00479 0.00447566 0)
(1.00235 0.00545505 0)
(1.00272 0.00631229 0)
(1.00716 0.00584889 0)
(1.00528 0.00641829 0)
(1.00383 0.00928411 0)
(1.00656 0.00895094 0)
(1.01019 0.00714824 0)
(1.00767 0.00842553 0)
(1.00693 0.0101146 0)
(1.00913 0.00905669 0)
(1.01207 0.00737247 0)
(1.01087 0.00760035 0)
(1.00931 0.0088486 0)
(1.00906 0.00899566 0)
(1.01109 0.00801578 0)
(1.00041 0.000200764 0)
(0.999964 0.00343822 0)
(1.001 0.00359493 0)
(1.00486 0.00343312 0)
(1.00469 0.00418855 0)
(1.00224 0.00558303 0)
(1.00253 0.00633454 0)
(1.00696 0.00579858 0)
(1.00548 0.00628145 0)
(1.00394 0.0090702 0)
(1.0062 0.00901204 0)
(1.01 0.00719048 0)
(1.00802 0.00801399 0)
(1.007 0.00982027 0)
(1.00867 0.00921309 0)
(1.01175 0.00755223 0)
(1.01112 0.00738164 0)
(1.00964 0.00849357 0)
(1.00893 0.00902196 0)
(1.0107 0.00824639 0)
(1.00039 0.000173992 0)
(0.999922 0.0031699 0)
(1.00076 0.00374103 0)
(1.00462 0.00331094 0)
(1.00462 0.00385396 0)
(1.00216 0.00565365 0)
(1.00232 0.00642753 0)
(1.00673 0.00577746 0)
(1.00567 0.00610633 0)
(1.00409 0.00882483 0)
(1.00587 0.00905004 0)
(1.00974 0.00727936 0)
(1.00833 0.00764952 0)
(1.00715 0.00944316 0)
(1.00827 0.00928056 0)
(1.01134 0.0077501 0)
(1.01125 0.00725973 0)
(1.01001 0.0081129 0)
(1.00892 0.00890637 0)
(1.01033 0.00842137 0)
(1.00036 0.000168515 0)
(0.999902 0.00287826 0)
(1.00053 0.0038571 0)
(1.00434 0.00326467 0)
(1.00456 0.0035182 0)
(1.00213 0.00564696 0)
(1.0021 0.00655228 0)
(1.00646 0.00580275 0)
(1.00584 0.00591535 0)
(1.00428 0.00854129 0)
(1.00556 0.00905208 0)
(1.00941 0.00739958 0)
(1.00857 0.00736063 0)
(1.00737 0.00901339 0)
(1.00796 0.00924769 0)
(1.01089 0.0079395 0)
(1.01126 0.00723481 0)
(1.01037 0.00775428 0)
(1.00905 0.00866942 0)
(1.01002 0.0084915 0)
(1.00033 0.000181023 0)
(0.999906 0.00257833 0)
(1.00032 0.0039253 0)
(1.00403 0.0032962 0)
(1.00452 0.00319635 0)
(1.00214 0.00555454 0)
(1.00189 0.00667936 0)
(1.00615 0.00588281 0)
(1.00598 0.00573751 0)
(1.0045 0.00820202 0)
(1.0053 0.0090005 0)
(1.00903 0.00753515 0)
(1.00873 0.00715622 0)
(1.00763 0.00857177 0)
(1.00775 0.00912297 0)
(1.01043 0.00808876 0)
(1.01114 0.00729348 0)
(1.01066 0.00747049 0)
(1.00927 0.0083577 0)
(1.00982 0.00845644 0)
(1.0003 0.000208941 0)
(0.999929 0.00228784 0)
(1.00015 0.00392294 0)
(1.00368 0.00339273 0)
(1.00446 0.00291661 0)
(1.00221 0.00536042 0)
(1.0017 0.00678222 0)
(1.00579 0.00602739 0)
(1.00608 0.00560805 0)
(1.00475 0.00782421 0)
(1.0051 0.00887711 0)
(1.00861 0.00766121 0)
(1.00879 0.00702154 0)
(1.00791 0.00812813 0)
(1.00764 0.00890685 0)
(1.01 0.00815873 0)
(1.01092 0.00737642 0)
(1.01086 0.00727669 0)
(1.00955 0.00800936 0)
(1.00974 0.00830947 0)
(1.00027 0.000242333 0)
(0.999969 0.00202039 0)
(1.00002 0.00385022 0)
(1.00332 0.00351738 0)
(1.00439 0.00270634 0)
(1.00233 0.0050787 0)
(1.00156 0.00682466 0)
(1.00541 0.00622246 0)
(1.00612 0.00555206 0)
(1.00502 0.0074497 0)
(1.00498 0.00869324 0)
(1.00818 0.00777001 0)
(1.00875 0.00697516 0)
(1.00818 0.00773632 0)
(1.00762 0.00863616 0)
(1.00962 0.0081655 0)
(1.01065 0.00744805 0)
(1.01095 0.00715968 0)
(1.00983 0.00767035 0)
(1.00977 0.00804377 0)
(1.00023 0.000280998 0)
(1.00002 0.00178038 0)
(0.999927 0.00371592 0)
(1.00295 0.00365565 0)
(1.00429 0.00257986 0)
(1.00249 0.00474478 0)
(1.00149 0.00677288 0)
(1.00502 0.00641719 0)
(1.00609 0.0055554 0)
(1.00528 0.00707871 0)
(1.00493 0.00843249 0)
(1.00778 0.00781587 0)
(1.00862 0.0069753 0)
(1.0084 0.00741262 0)
(1.00768 0.00832383 0)
(1.00931 0.00812398 0)
(1.01033 0.00751892 0)
(1.01093 0.00712295 0)
(1.01004 0.0074369 0)
(1.0099 0.00775549 0)
(1.0002 0.000317261 0)
(1.00008 0.00157937 0)
(0.999884 0.00353024 0)
(1.00259 0.0037786 0)
(1.00415 0.00255003 0)
(1.00268 0.00440623 0)
(1.00149 0.00663377 0)
(1.00464 0.00659365 0)
(1.00599 0.00562881 0)
(1.00552 0.00675583 0)
(1.00494 0.00812163 0)
(1.00741 0.00779435 0)
(1.00843 0.00697225 0)
(1.00857 0.00712742 0)
(1.0078 0.00794978 0)
(1.00909 0.00796473 0)
(1.01002 0.00751233 0)
(1.01083 0.00705469 0)
(1.01017 0.00722829 0)
(1.01005 0.00742398 0)
(1.00017 0.000341803 0)
(1.00014 0.00142822 0)
(0.999882 0.0033225 0)
(1.00225 0.00387995 0)
(1.00397 0.00259779 0)
(1.00288 0.00408994 0)
(1.00157 0.00641099 0)
(1.00429 0.00671784 0)
(1.00582 0.00573319 0)
(1.00571 0.00649656 0)
(1.005 0.00778783 0)
(1.00708 0.00772743 0)
(1.00818 0.00699336 0)
(1.00865 0.00692823 0)
(1.00793 0.00762575 0)
(1.00894 0.0077811 0)
(1.00972 0.0075061 0)
(1.01067 0.00703507 0)
(1.01022 0.00710365 0)
(1.01017 0.0071908 0)
(1.00014 0.000368619 0)
(1.0002 0.00128368 0)
(0.999919 0.00299307 0)
(1.00194 0.00391083 0)
(1.00376 0.00272324 0)
(1.00306 0.00385295 0)
(1.00172 0.00612589 0)
(1.00399 0.00676398 0)
(1.00561 0.00584327 0)
(1.00585 0.00629702 0)
(1.0051 0.00744996 0)
(1.00682 0.00759429 0)
(1.00791 0.00699482 0)
(1.00867 0.0067615 0)
(1.00808 0.00730285 0)
(1.00887 0.00753038 0)
(1.00947 0.00741309 0)
(1.01049 0.00698149 0)
(1.01021 0.00696077 0)
(1.01024 0.00697646 0)
(1.00011 0.000373835 0)
(1.00023 0.00121119 0)
(0.999992 0.00268671 0)
(1.0017 0.00390601 0)
(1.00354 0.00290511 0)
(1.00322 0.00371997 0)
(1.00192 0.00580252 0)
(1.00376 0.00670813 0)
(1.00537 0.00592699 0)
(1.00593 0.00612822 0)
(1.00522 0.00711029 0)
(1.00662 0.0074035 0)
(1.00763 0.00695825 0)
(1.00862 0.00663 0)
(1.00819 0.0069985 0)
(1.00885 0.00725006 0)
(1.00927 0.00726584 0)
(1.01028 0.00691224 0)
(1.01014 0.00683843 0)
(1.01027 0.00679115 0)
(1.00009 0.000374928 0)
(1.00027 0.00119433 0)
(1.00008 0.00248457 0)
(1.0015 0.00387826 0)
(1.0033 0.00306846 0)
(1.00333 0.00363925 0)
(1.00214 0.00544522 0)
(1.00358 0.00654686 0)
(1.00511 0.00595866 0)
(1.00595 0.0059865 0)
(1.00534 0.00678712 0)
(1.00648 0.0071924 0)
(1.00736 0.00690359 0)
(1.00851 0.00654356 0)
(1.00827 0.00675616 0)
(1.00888 0.00697254 0)
(1.00914 0.00708709 0)
(1.01009 0.00681885 0)
(1.01004 0.00673754 0)
(1.01026 0.00662029 0)
(1.00008 0.000380099 0)
(1.00029 0.00117649 0)
(1.00019 0.00227798 0)
(1.00135 0.00378458 0)
(1.00307 0.00319151 0)
(1.00339 0.0035972 0)
(1.00237 0.00509519 0)
(1.00348 0.00631483 0)
(1.00486 0.00592872 0)
(1.00591 0.00584083 0)
(1.00545 0.00645599 0)
(1.00639 0.00691223 0)
(1.00711 0.0067746 0)
(1.00834 0.00641563 0)
(1.00827 0.00651298 0)
(1.0089 0.00665197 0)
(1.00904 0.00682362 0)
(1.00991 0.00664052 0)
(1.00989 0.00659386 0)
(1.01018 0.0064418 0)
(1.00006 0.000366679 0)
(1.0003 0.00120853 0)
(1.00029 0.00211561 0)
(1.00124 0.00365075 0)
(1.00284 0.00326555 0)
(1.0034 0.00357721 0)
(1.00258 0.0047747 0)
(1.00342 0.006034 0)
(1.00462 0.00586096 0)
(1.00582 0.00572277 0)
(1.00554 0.0061777 0)
(1.00634 0.00664018 0)
(1.00689 0.00665129 0)
(1.00815 0.00633236 0)
(1.00824 0.00634802 0)
(1.00891 0.00640708 0)
(1.00899 0.00658913 0)
(1.00978 0.0064668 0)
(1.00977 0.00646355 0)
(1.01008 0.00631942 0)
(1.00005 0.000348839 0)
(1.0003 0.00124623 0)
(1.00038 0.00198501 0)
(1.00116 0.00349458 0)
(1.00262 0.00331171 0)
(1.00336 0.00359457 0)
(1.00276 0.00453863 0)
(1.00342 0.00576734 0)
(1.00442 0.00578653 0)
(1.0057 0.0056406 0)
(1.00559 0.00593443 0)
(1.00632 0.00634785 0)
(1.0067 0.00646206 0)
(1.00793 0.00620964 0)
(1.00813 0.006157 0)
(1.00888 0.00614079 0)
(1.00892 0.00630219 0)
(1.00966 0.00620395 0)
(1.00964 0.00622775 0)
(1.00994 0.00611487 0)
(1.00005 0.000340605 0)
(1.0003 0.0012401 0)
(1.00046 0.00184916 0)
(1.00111 0.00333247 0)
(1.00243 0.00332834 0)
(1.0033 0.00360528 0)
(1.00291 0.00432398 0)
(1.00344 0.00547439 0)
(1.00423 0.00563183 0)
(1.00553 0.00551959 0)
(1.00558 0.0056845 0)
(1.00629 0.00602554 0)
(1.00656 0.00621638 0)
(1.00771 0.00605734 0)
(1.00798 0.00599648 0)
(1.00881 0.00591273 0)
(1.00886 0.0060537 0)
(1.00955 0.00596674 0)
(1.00954 0.00599272 0)
(1.00984 0.00589672 0)
(1.00005 0.000324459 0)
(1.00028 0.00124122 0)
(1.00054 0.00173845 0)
(1.00108 0.00316478 0)
(1.00227 0.00330996 0)
(1.00321 0.00361604 0)
(1.00303 0.0041441 0)
(1.00348 0.00519077 0)
(1.00409 0.00545797 0)
(1.00536 0.00540237 0)
(1.00555 0.00548801 0)
(1.00628 0.00573713 0)
(1.00646 0.00595131 0)
(1.00752 0.00586509 0)
(1.00781 0.00583526 0)