/*--------------------------------*- C++ -*----------------------------------*\
| =========                 |                                                 |
| \\      /  F ield         | OpenFOAM: The Open Source CFD Toolbox           |
|  \\    /   O peration     | Version:  2506                                  |
|   \\  /    A nd           | Website:  www.openfoam.com                      |
|    \\/     M anipulation  |                                                 |
\*---------------------------------------------------------------------------*/
FoamFile
{
    version     2.0;
    format      ascii;
    arch        "LSB;label=32;scalar=64";
    class       surfaceScalarField;
    location    "2.75";
    object      phi;
}
// * * * * * * * * * * * * * * * * * * * * * * * * * * * * * * * * * * * * * //

dimensions      [0 3 -1 0 0 0 0];

oriented        oriented;

internalField   nonuniform List<scalar> 
19000
(
1.17076e-06
2.63373e-07
1.15029e-06
-2.36459e-07
1.16935e-06
-2.88688e-07
1.20263e-06
-8.02619e-08
1.16546e-06
8.23089e-07
1.09384e-06
-1.22326e-07
1.1471e-06
2.06372e-07
1.13739e-06
-7.45222e-07
1.16283e-06
-6.70063e-07
1.19293e-06
-1.48584e-07
1.17129e-06
-1.18802e-07
1.17732e-06
2.72249e-07
1.16121e-06
4.14563e-07
1.13702e-06
3.33399e-07
1.137e-06
5.70814e-07
1.10343e-06
-9.09434e-08
1.12261e-06
3.36443e-07
1.09016e-06
-2.30031e-07
1.10688e-06
5.76257e-08
-3.85107e-07
1.02897e-06
1.22405e-06
2.63582e-07
1.20512e-06
-2.17527e-07
1.22428e-06
-3.07843e-07
1.25848e-06
-1.14471e-07
1.21814e-06
8.63431e-07
1.15202e-06
-5.62042e-08
1.1964e-06
1.61989e-07
1.19024e-06
-7.39062e-07
1.21639e-06
-6.96207e-07
1.24991e-06
-1.82106e-07
1.22576e-06
-9.46499e-08
1.23599e-06
2.62011e-07
1.21363e-06
4.36929e-07
1.19783e-06
3.49199e-07
1.185e-06
5.83639e-07
1.16815e-06
-7.40914e-08
1.16785e-06
3.36747e-07
1.16429e-06
-2.2647e-07
1.1536e-06
6.83076e-08
-3.56046e-07
1.12454e-06
1.27933e-06
2.67039e-07
1.2644e-06
-2.026e-07
1.28041e-06
-3.23857e-07
1.31348e-06
-1.47532e-07
1.27577e-06
9.01137e-07
1.21893e-06
6.31351e-10
1.25119e-06
1.29734e-07
1.2536e-06
-7.41478e-07
1.27209e-06
-7.1469e-07
1.30726e-06
-2.17278e-07
1.28387e-06
-7.1257e-08
1.29144e-06
2.5444e-07
1.26954e-06
4.58833e-07
1.25518e-06
3.63552e-07
1.2459e-06
5.92926e-07
1.23303e-06
-6.12261e-08
1.239e-06
3.30781e-07
1.23567e-06
-2.23142e-07
1.23685e-06
6.71243e-08
-3.268e-07
1.20761e-06
1.33787e-06
2.73276e-07
1.3285e-06
-1.93238e-07
1.33883e-06
-3.34187e-07
1.36801e-06
-1.76706e-07
1.33862e-06
9.30524e-07
1.29332e-06
4.59352e-08
1.31251e-06
1.10541e-07
1.3229e-06
-7.51868e-07
1.33181e-06
-7.23599e-07
1.36423e-06
-2.49705e-07
1.34618e-06
-5.32059e-08
1.34419e-06
2.56431e-07
1.32758e-06
4.7544e-07
1.31356e-06
3.77575e-07
1.31045e-06
5.96036e-07
1.30049e-06
-5.12626e-08
1.30999e-06
3.21277e-07
1.30453e-06
-2.1768e-07
1.30971e-06
6.1949e-08
-2.93527e-07
1.27643e-06
1.40085e-06
2.80781e-07
1.3967e-06
-1.8909e-07
1.40052e-06
-3.38002e-07
1.42328e-06
-1.99473e-07
1.40616e-06
9.47645e-07
1.37247e-06
7.96312e-08
1.3807e-06
1.02305e-07
1.39391e-06
-7.65073e-07
1.39589e-06
-7.25583e-07
1.42227e-06
-2.76078e-07
1.41168e-06
-4.26186e-08
1.40135e-06
2.66761e-07
1.38833e-06
4.88462e-07
1.37735e-06
3.88555e-07
1.37963e-06
5.93749e-07
1.37195e-06
-4.35796e-08
1.38393e-06
3.09301e-07
1.37581e-06
-2.09563e-07
1.38297e-06
5.47868e-08
-2.58157e-07
1.3476e-06
1.46887e-06
2.87585e-07
1.46818e-06
-1.88394e-07
1.4662e-06
-3.36026e-07
1.48143e-06
-2.147e-07
1.47726e-06
9.51806e-07
1.45408e-06
1.02815e-07
1.45489e-06
1.01493e-07
1.46555e-06
-7.75735e-07
1.46337e-06
-7.23399e-07
1.4832e-06
-2.95909e-07
1.47849e-06
-3.79117e-08
1.46547e-06
2.79789e-07
1.45472e-06
4.9921e-07
1.44777e-06
3.95503e-07
1.45464e-06
5.8688e-07
1.4482e-06
-3.71356e-08
1.46158e-06
2.95917e-07
1.4504e-06
-1.98383e-07
1.45847e-06
4.67142e-08
-2.21462e-07
1.42178e-06
1.54167e-06
2.92136e-07
1.54242e-06
-1.89149e-07
1.53615e-06
-3.29753e-07
1.54444e-06
-2.22987e-07
1.55098e-06
9.45262e-07
1.53684e-06
1.16954e-07
1.53366e-06
1.04668e-07
1.5387e-06
-7.80772e-07
1.53321e-06
-7.17911e-07
1.54749e-06
-3.1019e-07
1.54627e-06
-3.66889e-08
1.53514e-06
2.90917e-07
1.52755e-06
5.06802e-07
1.52445e-06
3.98606e-07
1.53448e-06
5.76847e-07
1.52818e-06
-3.08317e-08
1.54219e-06
2.819e-07
1.52767e-06
-1.83857e-07
1.53618e-06
3.82005e-08
-1.84075e-07
1.4988e-06
1.61839e-06
2.93876e-07
1.61922e-06
-1.89979e-07
1.61021e-06
-3.20743e-07
1.61339e-06
-2.26164e-07
1.62708e-06
9.31563e-07
1.62032e-06
1.23722e-07
1.61578e-06
1.09203e-07
1.61448e-06
-7.79469e-07
1.60547e-06
-7.08901e-07
1.61511e-06
-3.19831e-07
1.61587e-06
-3.74539e-08
1.60877e-06
2.98025e-07
1.60546e-06
5.10105e-07
1.60591e-06
3.98157e-07
1.61787e-06
5.64894e-07
1.6107e-06
-2.36672e-08
1.62501e-06
2.67592e-07
1.60723e-06
-1.66079e-07
1.61593e-06
2.95028e-08
-1.46826e-07
1.57868e-06
1.69828e-06
2.93169e-07
1.6986e-06
-1.90296e-07
1.68814e-06
-3.10281e-07
1.6883e-06
-2.26324e-07
1.70592e-06
9.13944e-07
1.70468e-06
1.24957e-07
1.70045e-06
1.13433e-07
1.69356e-06
-7.72581e-07
1.68101e-06
-6.96343e-07
1.68642e-06
-3.25245e-07
1.68839e-06
-3.94205e-08
1.68569e-06
3.00719e-07
1.68702e-06
5.08781e-07
1.69058e-06
3.94597e-07
1.70381e-06
5.5166e-07
1.69513e-06
-1.49814e-08
1.70962e-06
2.53103e-07
1.689e-06
-1.45467e-07
1.69763e-06
2.08808e-08
-1.10671e-07
1.66147e-06
1.78109e-06
2.90803e-07
1.78082e-06
-1.90031e-07
1.76983e-06
-2.99293e-07
1.76857e-06
-2.25057e-07
1.78791e-06
8.94601e-07
1.79042e-06
1.22445e-07
1.78736e-06
1.16498e-07
1.77622e-06
-7.61448e-07
1.7607e-06
-6.80817e-07
1.76213e-06
-3.26677e-07
1.76471e-06
-4.20048e-08
1.76587e-06
2.99563e-07
1.77144e-06
5.03208e-07
1.77743e-06
3.88608e-07
1.79172e-06
5.37369e-07
1.78128e-06
-4.5351e-09
1.79593e-06
2.38448e-07
1.77314e-06
-1.22678e-07
1.78135e-06
1.26757e-08
-7.65792e-08
1.74725e-06
1.86705e-06
2.87498e-07
1.86634e-06
-1.8932e-07
1.85538e-06
-2.88333e-07
1.85352e-06
-2.23194e-07
1.87341e-06
8.74711e-07
1.87818e-06
1.17678e-07
1.87659e-06
1.1808e-07
1.86254e-06
-7.4739e-07
1.84499e-06
-6.63269e-07
1.84284e-06
-3.24532e-07
1.84556e-06
-4.47231e-08
1.84952e-06
2.95608e-07
1.85856e-06
4.9416e-07
1.86617e-06
3.81002e-07
1.88147e-06
5.2207e-07
1.86937e-06
7.56812e-09
1.88417e-06
2.23645e-07
1.86001e-06
-9.85159e-08
1.86735e-06
5.32781e-09
-4.54439e-08
1.83622e-06
1.95664e-06
2.83697e-07
1.95564e-06
-1.88323e-07
1.94493e-06
-2.77621e-07
1.94272e-06
-2.20981e-07
1.96271e-06
8.54722e-07
1.96865e-06
1.11741e-07
1.96856e-06
1.18161e-07
1.9526e-06
-7.31428e-07
1.93397e-06
-6.44639e-07
1.92884e-06
-3.19398e-07
1.93142e-06
-4.73004e-08
1.93701e-06
2.90017e-07
1.94863e-06
4.8254e-07
1.95707e-06
3.72559e-07
1.97336e-06
5.05783e-07
1.95993e-06
2.09935e-08
1.97477e-06
2.0881e-07
1.95011e-06
-7.38565e-08
1.95608e-06
-6.4543e-10
-1.80012e-08
1.92864e-06
2.05029e-06
2.79593e-07
2.04912e-06
-1.87153e-07
2.03864e-06
-2.67143e-07
2.03605e-06
-2.18388e-07
2.05612e-06
8.34653e-07
2.06251e-06
1.05348e-07
2.06381e-06
1.16869e-07
2.0466e-06
-7.14223e-07
2.02761e-06
-6.25651e-07
2.0201e-06
-3.11885e-07
2.0225e-06
-4.9705e-08
2.02873e-06
2.83787e-07
2.0421e-06
4.69177e-07
2.05075e-06
3.63903e-07
2.06795e-06
4.88588e-07
2.05367e-06
3.52753e-08
2.06829e-06
1.94183e-07
2.04398e-06
-4.95448e-08
2.04809e-06
-4.74788e-09
5.26553e-09
2.02482e-06
2.14835e-06
2.75244e-07
2.14707e-06
-1.85874e-07
2.13671e-06
-2.5678e-07
2.13365e-06
-2.1533e-07
2.15398e-06
8.14319e-07
2.16038e-06
9.89504e-08
2.16287e-06
1.14383e-07
2.14476e-06
-6.96119e-07
2.1259e-06
-6.06792e-07
2.11649e-06
-3.02467e-07
2.11884e-06
-5.20581e-08
2.12501e-06
2.77616e-07
2.13946e-06
4.54729e-07
2.14793e-06
3.55428e-07
2.16589e-06
4.70636e-07
2.15126e-06
4.98963e-08
2.16532e-06
1.80124e-07
2.14213e-06
-2.63523e-08
2.14401e-06
-6.6289e-09
2.42183e-08
2.12506e-06
2.25108e-06
2.70651e-07
2.2497e-06
-1.84494e-07
2.23934e-06
-2.46423e-07
2.23577e-06
-2.11759e-07
2.25661e-06
7.93484e-07
2.26273e-06
9.28329e-08
2.26624e-06
1.10873e-07
2.24735e-06
-6.77236e-07
2.22893e-06
-5.88369e-07
2.2179e-06
-2.91442e-07
2.22036e-06
-5.45154e-08
2.22608e-06
2.71896e-07
2.24113e-06
4.39678e-07
2.24929e-06
3.47275e-07
2.26776e-06
4.52163e-07
2.25333e-06
6.43242e-08
2.26642e-06
1.67037e-07
2.24495e-06
-4.88381e-09
2.24453e-06
-6.20641e-09
3.91111e-08
2.22963e-06
2.35871e-06
2.65813e-07
2.35721e-06
-1.82988e-07
2.34681e-06
-2.36026e-07
2.34272e-06
-2.07671e-07
2.36426e-06
7.71951e-07
2.36991e-06
8.7181e-08
2.37432e-06
1.06461e-07
2.35463e-06
-6.57545e-07
2.33684e-06
-5.70581e-07
2.32437e-06
-2.78973e-07
2.32705e-06
-5.71964e-08
2.33219e-06
2.66759e-07
2.3475e-06
4.24368e-07
2.35541e-06
3.39369e-07
2.3741e-06
4.33468e-07
2.36036e-06
7.80687e-08
2.3721e-06
1.55296e-07
2.35275e-06
1.44625e-08
2.3502e-06
-3.65581e-09
5.04964e-08
2.33882e-06
2.47148e-06
2.60724e-07
2.4698e-06
-1.81309e-07
2.45939e-06
-2.25614e-07
2.4548e-06
-2.03075e-07
2.47716e-06
7.49587e-07
2.48222e-06
8.21229e-08
2.48748e-06
1.01204e-07
2.46686e-06
-6.36934e-07
2.44985e-06
-5.53565e-07
2.43605e-06
-2.65173e-07
2.43901e-06
-6.01613e-08
2.44365e-06
2.62124e-07
2.45894e-06
4.0907e-07
2.46683e-06
3.31485e-07
2.48538e-06
4.14917e-07
2.47273e-06
9.0721e-08
2.48287e-06
1.45156e-07
2.46575e-06
3.15839e-08
2.46142e-06
6.69879e-10
5.9033e-08
2.45288e-06
2.58963e-06
2.55384e-07
2.58772e-06
-1.79396e-07
2.57737e-06
-2.15264e-07
2.57227e-06
-1.97969e-07
2.59553e-06
7.26319e-07
2.5999e-06
7.77563e-08
2.60601e-06
9.50963e-08
2.58434e-06
-6.15262e-07
2.56818e-06
-5.37409e-07
2.55317e-06
-2.50161e-07
2.5564e-06
-6.33974e-08
2.56078e-06
2.57752e-07
2.57579e-06
3.94052e-07
2.58396e-06
3.23322e-07
2.60198e-06
3.96891e-07
2.59068e-06
1.02024e-07
2.59918e-06
1.36661e-07
2.58409e-06
4.66735e-08
2.57842e-06
6.3324e-09
6.53334e-08
2.57212e-06
2.71343e-06
2.49785e-07
2.71122e-06
-1.77187e-07
2.70104e-06
-2.05083e-07
2.6954e-06
-1.92327e-07
2.71961e-06
7.02102e-07
2.7232e-06
7.41663e-08
2.7302e-06
8.81009e-08
2.70735e-06
-5.92414e-07
2.69209e-06
-5.22152e-07
2.67602e-06
-2.34088e-07
2.67943e-06
-6.68124e-08
2.68389e-06
2.53298e-07
2.69835e-06
3.79595e-07
2.70709e-06
3.14577e-07
2.72424e-06
3.79741e-07
2.71436e-06
1.11902e-07
2.72139e-06
1.29631e-07
2.70797e-06
6.00993e-08
2.70138e-06
1.29195e-08
6.98688e-08
2.69685e-06
2.84313e-06
2.43919e-07
2.84056e-06
-1.74612e-07
2.83067e-06
-1.95196e-07
2.82444e-06
-1.86099e-07
2.84964e-06
6.76901e-07
2.85238e-06
7.14332e-08
2.8603e-06
8.01769e-08
2.83622e-06
-5.68331e-07
2.82184e-06
-5.07776e-07
2.80491e-06
-2.17159e-07
2.80832e-06
-7.02234e-08
2.81324e-06
2.48382e-07
2.82686e-06
3.65975e-07
2.83642e-06
3.05014e-07
2.85248e-06
3.63681e-07
2.8439e-06
1.20483e-07
2.84978e-06
1.23751e-07
2.8377e-06
7.2184e-08
2.83045e-06
2.01723e-08
7.29508e-08
2.82736e-06
2.97904e-06
2.37773e-07
2.97603e-06
-1.71596e-07
2.96656e-06
-1.85731e-07
2.95968e-06
-1.79213e-07
2.9859e-06
6.50674e-07
2.98771e-06
6.96296e-08
2.99657e-06
7.13112e-08
2.97127e-06
-5.43029e-07
2.95769e-06
-4.94201e-07
2.94017e-06
-1.99635e-07
2.94331e-06
-7.33606e-08
2.94907e-06
2.4262e-07
2.9616e-06
3.53446e-07
2.97208e-06
2.94532e-07
2.98705e-06
3.48708e-07
2.97943e-06
1.28109e-07
2.98454e-06
1.18635e-07
2.97364e-06
8.30863e-08
2.96576e-06
2.80486e-08
7.47514e-08
2.96396e-06
3.12145e-06
2.31332e-07
3.11791e-06
-1.68056e-07
3.109e-06
-1.76826e-07
3.10138e-06
-1.71588e-07
3.12867e-06
6.23382e-07
3.12949e-06
6.88073e-08
3.13927e-06
6.1537e-08
3.11284e-06
-5.16603e-07
3.09992e-06
-4.81281e-07
3.08212e-06
-1.81834e-07
3.08465e-06
-7.58914e-08
3.09159e-06
2.35682e-07
3.10286e-06
3.42171e-07
3.11419e-06
2.83205e-07
3.12829e-06
3.34611e-07
3.12118e-06
1.35219e-07
3.1258e-06
1.14009e-07
3.11619e-06
9.26967e-08
3.10755e-06
3.66921e-08
7.54045e-08
3.1069e-06
3.27066e-06
2.24582e-07
3.26651e-06
-1.63901e-07
3.2583e-06
-1.68622e-07
3.24986e-06
-1.63145e-07
3.27824e-06
5.95004e-07
3.27807e-06
6.89784e-08
3.28865e-06
5.09475e-08
3.26128e-06
-4.8923e-07
3.2488e-06
-4.68803e-07
3.2311e-06
-1.6413e-07
3.23265e-06
-7.74464e-08
3.24102e-06
2.27315e-07
3.251e-06
3.32195e-07
3.26293e-06
2.71276e-07
3.27649e-06
3.21049e-07
3.26949e-06
1.42221e-07
3.27372e-06
1.09776e-07
3.26566e-06
1.0076e-07
3.25617e-06
4.61812e-08
7.51878e-08
3.25638e-06
3.427e-06
2.17511e-07
3.42214e-06
-1.59039e-07
3.41478e-06
-1.61261e-07
3.40545e-06
-1.53819e-07
3.4349e-06
5.65557e-07
3.43378e-06
7.01004e-08
3.44502e-06
3.97004e-08
3.41696e-06
-4.61165e-07
3.40465e-06
-4.56497e-07
3.38745e-06
-1.46931e-07
3.38767e-06
-7.76628e-08
3.3976e-06
2.17384e-07
3.40637e-06
3.23429e-07
3.41852e-06
2.59125e-07
3.43194e-06
3.07628e-07
3.42478e-06
1.49378e-07
3.42847e-06
1.06088e-07
3.4223e-06
1.0693e-07
3.41205e-06
5.6433e-08
7.45788e-08
3.41266e-06
3.59081e-06
2.10111e-07
3.58516e-06
-1.53383e-07
3.57876e-06
-1.54866e-07
3.56852e-06
-1.43579e-07
3.59897e-06
5.3511e-07
3.597e-06
7.20717e-08
3.60868e-06
2.80133e-08
3.58026e-06
-4.32736e-07
3.5678e-06
-4.44045e-07
3.55153e-06
-1.30656e-07
3.55011e-06
-7.62463e-08
3.56158e-06
2.05915e-07
3.56937e-06
3.15638e-07
3.58127e-06
2.47227e-07
3.5949e-06
2.94e-07
3.58756e-06
1.56713e-07
3.59038e-06
1.03269e-07
3.58634e-06
1.10977e-07
3.57566e-06
6.7108e-08
7.42118e-08
3.57603e-06
3.76244e-06
2.02375e-07
3.75592e-06
-1.46866e-07
3.75059e-06
-1.49531e-07
3.73945e-06
-1.32444e-07
3.77076e-06
5.03802e-07
3.76811e-06
7.47224e-08
3.77996e-06
1.61652e-08
3.75156e-06
-4.04336e-07
3.73862e-06
-4.31102e-07
3.72366e-06
-1.15699e-07
3.72042e-06
-7.30112e-08
3.73323e-06
1.93108e-07
3.7404e-06
3.08468e-07
3.75155e-06
2.36081e-07
3.76562e-06
2.79923e-07
3.75831e-06
1.64022e-07
3.75988e-06
1.017e-07
3.75798e-06
1.12875e-07
3.74742e-06
7.76704e-08
7.47232e-08
3.74691e-06
3.94226e-06
1.94305e-07
3.93484e-06
-1.39446e-07
3.93061e-06
-1.45306e-07
3.91866e-06
-1.20488e-07
3.95062e-06
4.71843e-07
3.94752e-06
7.78149e-08
3.95919e-06
4.49504e-09
3.93127e-06
-3.76412e-07
3.91749e-06
-4.1732e-07
3.90416e-06
-1.02367e-07
3.89909e-06
-6.79393e-08
3.91288e-06
1.79319e-07
3.91983e-06
3.01517e-07
3.92978e-06
2.26127e-07
3.9444e-06
2.653e-07
3.93747e-06
1.7096e-07
3.93746e-06
1.01706e-07
3.93748e-06
1.12852e-07
3.9277e-06
8.74533e-08
7.66341e-08
3.92579e-06
4.13065e-06
1.85905e-07
4.12232e-06
-1.31115e-07
4.1192e-06
-1.42185e-07
4.10656e-06
-1.07853e-07
4.13889e-06
4.39517e-07
4.13565e-06
8.10531e-08
4.14676e-06
-6.61833e-09
4.1198e-06
-3.49443e-07
4.10487e-06
-4.0239e-07
4.09333e-06
-9.08288e-08
4.08659e-06
-6.11981e-08
4.10089e-06
1.65017e-07
4.10799e-06
2.94411e-07
4.11648e-06
2.1764e-07
4.13155e-06
2.50233e-07
4.1254e-06
1.77104e-07
4.12365e-06
1.03463e-07
4.12516e-06
1.11342e-07
4.11681e-06
9.57996e-08
8.01792e-08
4.11326e-06
4.32802e-06
1.77191e-07
4.3188e-06
-1.21897e-07
4.31672e-06
-1.40105e-07
4.30362e-06
-9.47537e-08
4.33595e-06
4.07181e-07
4.33292e-06
8.40929e-08
4.34308e-06
-1.67782e-08
4.31753e-06
-3.23896e-07
4.30123e-06
-3.86096e-07
4.29149e-06
-8.10825e-08
4.28337e-06
-5.30755e-08
4.2977e-06
1.50679e-07
4.30525e-06
2.86864e-07
4.31215e-06
2.10737e-07
4.32739e-06
2.35002e-07
4.32249e-06
1.81999e-07
4.31898e-06
1.06971e-07
4.3214e-06
1.08929e-07
4.315e-06
1.02197e-07
8.51765e-08
4.31e-06
4.53478e-06
1.68187e-07
4.52474e-06
-1.11858e-07
4.52357e-06
-1.38932e-07
4.51029e-06
-8.14754e-08
4.54222e-06
3.75251e-07
4.53975e-06
8.65579e-08
4.54856e-06
-2.55816e-08
4.52484e-06
-3.0018e-07
4.50714e-06
-3.68398e-07
4.49899e-06
-7.29334e-08
4.48986e-06
-4.3944e-08
4.50379e-06
1.36753e-07
4.51197e-06
2.78677e-07
4.51731e-06
2.05395e-07
4.53234e-06
2.19978e-07
4.52905e-06
1.85288e-07
4.52406e-06
1.11963e-07
4.52665e-06
1.06339e-07
4.52252e-06
1.06319e-07
9.10429e-08
4.51666e-06
4.75137e-06
1.58932e-07
4.74062e-06
-1.01108e-07
4.74015e-06
-1.38457e-07
4.72705e-06
-6.83789e-08
4.75809e-06
3.44209e-07
4.75661e-06
8.80355e-08
4.7637e-06
-3.26655e-08
4.742e-06
-2.78478e-07
4.72314e-06
-3.49539e-07
4.71627e-06
-6.60662e-08
4.70649e-06
-3.41618e-08
4.71963e-06
1.23606e-07
4.72856e-06
2.69755e-07
4.73241e-06
2.01542e-07
4.74687e-06
2.05514e-07
4.74544e-06
1.86719e-07
4.73938e-06
1.18031e-07
4.74148e-06
1.04237e-07
4.73962e-06
1.08174e-07
9.69117e-08
4.73375e-06
4.97825e-06
1.49479e-07
4.96695e-06
-8.98059e-08
4.96689e-06
-1.38395e-07
4.95439e-06
-5.5883e-08
4.98403e-06
3.14573e-07
4.98396e-06
8.81054e-08
4.98908e-06
-3.77888e-08
4.96925e-06
-2.58652e-07
4.94971e-06
-3.29997e-07
4.94381e-06
-6.01626e-08
4.9337e-06
-2.405e-08
4.94574e-06
1.11566e-07
4.95542e-06
2.60075e-07
4.95793e-06
1.99026e-07
4.9715e-06
1.91951e-07
4.97202e-06
1.86192e-07
4.96542e-06
1.24628e-07
4.96657e-06
1.0309e-07
4.96657e-06
1.08177e-07
1.01835e-07
4.96164e-06
5.2159e-06
1.39898e-07
5.20426e-06
-7.81646e-08
5.20423e-06
-1.38365e-07
5.1928e-06
-4.44563e-08
5.22053e-06
2.86846e-07
5.22222e-06
8.64145e-08
5.22542e-06
-4.0995e-08
5.20704e-06
-2.40272e-07
5.18731e-06
-3.1026e-07
5.18214e-06
-5.49958e-08
5.17193e-06
-1.38435e-08
5.18261e-06
1.00895e-07
5.19297e-06
2.4971e-07
5.19439e-06
1.97611e-07
5.20668e-06
1.79657e-07
5.20921e-06
1.83663e-07
5.20265e-06
1.31189e-07
5.2026e-06
1.03137e-07
5.20381e-06
1.06971e-07
1.0513e-07
5.20051e-06
5.46481e-06
1.30275e-07
5.45309e-06
-6.64407e-08
5.45261e-06
-1.37891e-07
5.44276e-06
-3.46051e-08
5.46819e-06
2.61416e-07
5.47175e-06
8.28522e-08
5.47349e-06
-4.27301e-08
5.45601e-06
-2.22793e-07
5.43637e-06
-2.90615e-07
5.43182e-06
-5.04476e-08
5.42165e-06
-3.67424e-09
5.43074e-06
9.18074e-08
5.44163e-06
2.38811e-07
5.44227e-06
1.96975e-07
5.45301e-06
1.68917e-07
5.45746e-06
1.79213e-07
5.45148e-06
1.37174e-07
5.45024e-06
1.04374e-07
5.45199e-06
1.05221e-07
1.06635e-07
5.45048e-06
5.72553e-06
1.20707e-07
5.71401e-06
-5.49252e-08
5.71248e-06
-1.36358e-07
5.70477e-06
-2.68985e-08
5.7278e-06
2.38389e-07
5.73288e-06
7.77748e-08
5.73381e-06
-4.36646e-08
5.71691e-06
-2.05887e-07
5.6974e-06
-2.71109e-07
5.69331e-06
-4.63618e-08
5.68326e-06
6.38029e-09
5.69055e-06
8.45182e-08
5.70187e-06
2.27494e-07
5.70212e-06
1.96716e-07
5.71113e-06
1.59913e-07
5.71732e-06
1.7302e-07
5.7123e-06
1.4219e-07
5.71008e-06
1.06595e-07
5.71186e-06
1.03447e-07
1.06638e-07
5.71186e-06
5.9986e-06
1.11297e-07
5.98761e-06
-4.39293e-08
5.98424e-06
-1.32996e-07
5.97931e-06
-2.19621e-08
6.00026e-06
2.17435e-07
6.006e-06
7.20323e-08
6.00672e-06
-4.43761e-08
5.99037e-06
-1.8954e-07
5.97084e-06
-2.51575e-07
5.96694e-06
-4.24664e-08
5.95698e-06
1.63379e-08
5.96241e-06
7.9086e-08
5.97415e-06
2.15762e-07
5.97451e-06
1.96353e-07
5.98173e-06
1.5269e-07
5.98933e-06
1.65425e-07
5.98567e-06
1.45851e-07
5.98267e-06
1.09589e-07
5.9842e-06
1.01921e-07
1.05626e-07
5.98521e-06
6.28464e-06
1.02142e-07
6.27447e-06
-3.37554e-08
6.26891e-06
-1.27436e-07
6.26668e-06
-1.97305e-08
6.28631e-06
1.97798e-07
6.29187e-06
6.64805e-08
6.2924e-06
-4.49128e-08
6.27661e-06
-1.73747e-07
6.25657e-06
-2.31538e-07
6.25236e-06
-3.82542e-08
6.24286e-06
2.58394e-08
6.24677e-06
7.51742e-08
6.2591e-06
2.03428e-07
6.26011e-06
1.95345e-07
6.26555e-06
1.47249e-07
6.27407e-06
1.56911e-07
6.27208e-06
1.47839e-07
6.26857e-06
1.13101e-07
6.26966e-06
1.00832e-07
1.03978e-07
6.2713e-06
6.5843e-06
9.33152e-08
6.57522e-06
-2.46753e-08
6.56801e-06
-1.20226e-07
6.56725e-06
-1.897e-08
6.58648e-06
1.78567e-07
6.59138e-06
6.15758e-08
6.59107e-06
-4.46017e-08
6.57532e-06
-1.58002e-07
6.5546e-06
-2.1081e-07
6.5501e-06
-3.3761e-08
6.54165e-06
3.42941e-08
6.54452e-06
7.2307e-08
6.55753e-06
1.9041e-07
6.55957e-06
1.93313e-07
6.56334e-06
1.43476e-07
6.57214e-06
1.48107e-07
6.57209e-06
1.47896e-07
6.56836e-06
1.16824e-07
6.56887e-06
1.00323e-07
1.01933e-07
6.57092e-06
6.89824e-06
8.48699e-08
6.89055e-06
-1.69862e-08
6.88218e-06
-1.11859e-07
6.88181e-06
-1.85959e-08
6.90102e-06
1.59347e-07
6.90557e-06
5.70295e-08
6.9036e-06
-4.26268e-08
6.88781e-06
-1.42219e-07
6.86721e-06
-1.90211e-07
6.86247e-06
-2.9016e-08
6.85497e-06
4.17943e-08
6.85683e-06
7.04444e-08
6.87019e-06
1.77049e-07
6.87346e-06
1.90051e-07
6.8758e-06
1.41131e-07
6.88429e-06
1.39617e-07
6.88619e-06
1.45992e-07
6.88269e-06
1.20322e-07
6.8825e-06
1.00514e-07
9.96802e-08
6.88476e-06
7.22717e-06
7.68357e-08
7.22126e-06
-1.10795e-08
7.21198e-06
-1.02577e-07
7.21132e-06
-1.79291e-08
7.23036e-06
1.40303e-07
7.23518e-06
5.22113e-08
7.23153e-06
-3.89764e-08
7.21603e-06
-1.26722e-07
7.19579e-06
-1.69968e-07
7.19056e-06
-2.37926e-08
7.18374e-06
4.86157e-08
7.1846e-06
6.95867e-08
7.19783e-06
1.63823e-07
7.2024e-06
1.85479e-07
7.20365e-06
1.39876e-07
7.2113e-06
1.31974e-07
7.21498e-06
1.4231e-07
7.2122e-06
1.23105e-07
7.2113e-06
1.01405e-07
9.74782e-08
7.21351e-06
7.57185e-06
6.92161e-08
7.56784e-06
-7.07622e-09
7.55813e-06
-9.28603e-08
7.55681e-06
-1.66168e-08
7.57505e-06
1.2207e-07
7.58088e-06
4.63823e-08
7.57614e-06
-3.42379e-08
7.56072e-06
-1.11308e-07
7.54068e-06
-1.49925e-07
7.53479e-06
-1.79061e-08
7.52859e-06
5.48166e-08
7.52852e-06
6.96557e-08
7.5412e-06
1.51148e-07
7.54702e-06
1.79654e-07
7.54762e-06
1.39275e-07
7.55406e-06
1.25538e-07
7.55909e-06
1.37282e-07
7.55748e-06
1.24719e-07
7.55606e-06
1.02823e-07
9.56223e-08
7.55791e-06
7.93303e-06
6.19931e-08
7.93036e-06
-4.40104e-09
7.92152e-06
-8.40186e-08
7.91926e-06
-1.43555e-08
7.93613e-06
1.052e-07
7.94306e-06
3.94448e-08
7.93883e-06
-3.00007e-08
7.92325e-06
-9.57324e-08
7.90224e-06
-1.28914e-07
7.89568e-06
-1.13484e-08
7.89022e-06
6.02769e-08
7.88935e-06
7.05263e-08
7.90108e-06
1.39424e-07
7.90804e-06
1.72689e-07
7.90844e-06
1.38878e-07
7.91348e-06
1.20494e-07
7.91934e-06
1.31429e-07
7.91914e-06
1.24915e-07
7.91756e-06
1.04407e-07
9.43185e-08
7.91886e-06
8.31154e-06
5.51374e-08
8.30946e-06
-2.32861e-09
8.30264e-06
-7.71944e-08
8.29947e-06
-1.11845e-08
8.31472e-06
8.99502e-08
8.32185e-06
3.23135e-08
8.31877e-06
-2.69165e-08
8.30227e-06
-7.92394e-08
8.28041e-06
-1.0705e-07
8.27398e-06
-4.91514e-09
8.26945e-06
6.47999e-08
8.26787e-06
7.21109e-08
8.2783e-06
1.28988e-07
8.2862e-06
1.64798e-07
8.28679e-06
1.38288e-07
8.2905e-06
1.16783e-07
8.29665e-06
1.25278e-07
8.29788e-06
1.23681e-07
8.29652e-06
1.05771e-07
9.35865e-08
8.29725e-06
8.70814e-06
4.86563e-08
8.70655e-06
-7.38598e-10
8.70092e-06
-7.15582e-08
8.69766e-06
-7.92397e-09
8.7107e-06
7.69106e-08
8.7167e-06
2.63102e-08
8.70974e-06
-1.99606e-08
8.6935e-06
-6.29938e-08
8.67565e-06
-8.92041e-08
8.67061e-06
1.25826e-10
8.66707e-06
6.83419e-08
8.66488e-06
7.43e-08
8.67381e-06
1.20058e-07
8.68233e-06
1.56282e-07
8.68344e-06
1.37172e-07
8.686e-06
1.14227e-07
8.69199e-06
1.19285e-07
8.6945e-06
1.2117e-07
8.69366e-06
1.06615e-07
9.32669e-08
8.69398e-06
9.12372e-06
4.25583e-08
9.12276e-06
2.19697e-10
9.11701e-06
-6.58056e-08
9.11296e-06
-3.87472e-09
9.11765e-06
7.22158e-08
9.12015e-06
2.38085e-08
9.117e-06
-1.68084e-08
9.10554e-06
-5.15347e-08
9.09031e-06
-7.39695e-08
9.08635e-06
4.08332e-09
9.08385e-06
7.08453e-08
9.0812e-06
7.69498e-08
9.08856e-06
1.12698e-07
9.09734e-06
1.47496e-07
9.09921e-06
1.35303e-07
9.1009e-06
1.12541e-07
9.10637e-06
1.13812e-07
9.10986e-06
1.17681e-07
9.10976e-06
1.06712e-07
9.31345e-08
9.1099e-06
9.55916e-06
3.6862e-08
9.55829e-06
1.08349e-09
9.55248e-06
-5.99908e-08
9.5484e-06
2.00502e-10
9.55241e-06
6.82051e-08
9.5541e-06
2.21213e-08
9.55106e-06
-1.37686e-08
9.53998e-06
-4.0452e-08
9.52534e-06
-5.93357e-08
9.52183e-06
7.59859e-09
9.52037e-06
7.23076e-08
9.51772e-06
7.95973e-08
9.5235e-06
1.06919e-07
9.53216e-06
1.38837e-07
9.53487e-06
1.3259e-07
9.53605e-06
1.11356e-07
9.54077e-06
1.09099e-07
9.54496e-06
1.13492e-07
9.54571e-06
1.05955e-07
9.29445e-08
9.5459e-06
1.00154e-05
3.15867e-08
1.00142e-05
2.29552e-09
1.00088e-05
-5.46091e-08
1.00059e-05
3.15077e-09
1.00089e-05
6.51309e-08
1.00093e-05
2.17822e-08
1.00062e-05
-1.06417e-08
9.99581e-06
-3.01087e-08
9.98166e-06
-4.51847e-08
9.97804e-06
1.12212e-08
9.97757e-06
7.27743e-08
9.97528e-06
8.189e-08
9.97968e-06
1.02517e-07
9.98782e-06
1.30695e-07
9.99134e-06
1.29069e-07
9.99237e-06
1.10328e-07
9.99626e-06
1.05212e-07
1.00008e-05
1.0895e-07
1.00024e-05
1.04352e-07
9.25065e-08
1.00028e-05
1.04934e-05
2.67782e-08
1.04921e-05
3.66248e-09
1.04869e-05
-4.9471e-08
1.04853e-05
4.75337e-09
1.04875e-05
6.30157e-08
1.04864e-05
2.27911e-08
1.04831e-05
-7.27675e-09
1.04737e-05
-2.07042e-08
1.04602e-05
-3.16702e-08
1.04562e-05
1.51992e-08
1.04564e-05
7.25225e-08
1.04547e-05
8.35905e-08
1.0458e-05
9.92121e-08
1.04655e-05
1.23253e-07
1.04696e-05
1.24952e-07
1.04708e-05
1.09137e-07
1.04739e-05
1.02103e-07
1.04785e-05
1.04383e-07
1.04808e-05
1.01985e-07
9.16805e-08
1.04817e-05
1.09943e-05
2.24801e-08
1.0993e-05
5.02067e-09
1.09879e-05
-4.43691e-08
1.09872e-05
5.36089e-09
1.09889e-05
6.13519e-08
1.09867e-05
2.5004e-08
1.09829e-05
-3.48455e-09
1.09745e-05
-1.22661e-08
1.09618e-05
-1.90239e-08
1.09574e-05
1.95884e-08
1.09581e-05
7.18679e-08
1.0957e-05
8.46458e-08
1.09596e-05
9.66528e-08
1.09662e-05
1.16609e-07
1.09707e-05
1.20444e-07
1.09723e-05
1.0761e-07
1.09748e-05
9.95928e-08
1.09791e-05
1.00045e-07
1.09821e-05
9.9019e-08
9.03961e-08
1.09834e-05
1.15191e-05
1.87444e-08
1.15179e-05
6.18893e-09
1.15124e-05
-3.88761e-08
1.15125e-05
5.31899e-09
1.15142e-05
5.96144e-08
1.15111e-05
2.80953e-08
1.15068e-05
8.75483e-10
1.14992e-05
-4.70514e-09
1.14876e-05
-7.45133e-09
1.14829e-05
2.42784e-08
1.14837e-05
7.10986e-08
1.14833e-05
8.50799e-08
1.14853e-05
9.45968e-08
1.14912e-05
1.10739e-07
1.14959e-05
1.15754e-07
1.14978e-05
1.05664e-07
1.15e-05
9.74592e-08
1.15039e-05
9.60871e-08
1.15073e-05
9.56499e-08
8.86551e-08
1.1509e-05
1.20689e-05
1.56267e-08
1.2068e-05
7.1567e-09
1.20618e-05
-3.27096e-08
1.20621e-05
5.07341e-09
1.20643e-05
5.7325e-08
1.20609e-05
3.15827e-08
1.20559e-05
5.83096e-09
1.2049e-05
2.15984e-09
1.20387e-05
2.90813e-09
1.20338e-05
2.91216e-08
1.20345e-05
7.04188e-08
1.20346e-05
8.49791e-08
1.20364e-05
9.28455e-08
1.20415e-05
1.05581e-07
1.20462e-05
1.11028e-07
1.20486e-05
1.03311e-07
1.20506e-05
9.54905e-08
1.20541e-05
9.25749e-08
1.20577e-05
9.20651e-08
8.65011e-08
1.20598e-05
1.26451e-05
1.31657e-08
1.26441e-05
8.1009e-09
1.26371e-05
-2.56932e-08
1.26373e-05
4.91408e-09
1.26404e-05
5.41506e-08
1.26371e-05
3.49555e-08
1.26316e-05
1.1322e-08
1.26252e-05
8.56194e-09
1.2616e-05
1.20233e-08
1.26113e-05
3.39102e-08
1.26117e-05
6.99342e-08
1.26122e-05
8.44784e-08
1.26138e-05
9.12512e-08
1.26184e-05
1.01019e-07
1.2623e-05
1.06421e-07
1.26257e-05
1.00594e-07
1.26277e-05
9.35042e-08
1.26308e-05
8.94817e-08
1.26344e-05
8.84401e-08
8.39806e-08
1.26369e-05
1.32487e-05
1.13568e-08
1.32476e-05
9.25777e-09
1.32402e-05
-1.83072e-08
1.32398e-05
5.27202e-09
1.32438e-05
5.02346e-08
1.32409e-05
3.78005e-08
1.32351e-05
1.71715e-08
1.32289e-05
1.47102e-08
1.32209e-05
2.00069e-08
1.32164e-05
3.84227e-08
1.32167e-05
6.96338e-08
1.32175e-05
8.37243e-08
1.3219e-05
8.97288e-08
1.3223e-05
9.69931e-08
1.32275e-05
1.01975e-07
1.32305e-05
9.75861e-08
1.32326e-05
9.13736e-08
1.32354e-05
8.67108e-08
1.32389e-05
8.49471e-08
8.11595e-08
1.32417e-05
1.38814e-05
1.01353e-08
1.38803e-05
1.0306e-08
1.3873e-05
-1.09341e-08
1.38717e-05
6.58207e-09
1.38758e-05
4.61358e-08
1.38737e-05
3.99034e-08
1.38677e-05
2.31317e-08
1.38617e-05
2.07147e-08
1.38547e-05
2.70074e-08
1.38505e-05
4.25832e-08
1.38507e-05
6.94481e-08
1.38517e-05
8.27752e-08
1.38531e-05
8.82425e-08
1.38567e-05
9.34203e-08
1.38609e-05
9.77624e-08
1.38641e-05
9.43744e-08
1.38665e-05
8.90363e-08
1.38691e-05
8.41118e-08
1.38724e-05
8.1671e-08
7.81336e-08
1.38754e-05
1.45444e-05
9.41698e-09
1.45433e-05
1.13662e-08
1.45365e-05
-4.07262e-09
1.45342e-05
8.84195e-09
1.45379e-05
4.24276e-08
1.45366e-05
4.12427e-08
1.45308e-05
2.88999e-08
1.45249e-05
2.662e-08
1.45187e-05
3.32326e-08
1.45149e-05
4.63327e-08
1.45151e-05
6.93157e-08
1.45162e-05
8.16633e-08
1.45177e-05
8.67376e-08
1.45209e-05
9.02257e-08
1.45248e-05
9.3823e-08
1.45281e-05
9.10639e-08
1.45307e-05
8.64735e-08
1.45332e-05
8.15581e-08
1.45363e-05
7.86131e-08
7.50284e-08
1.45394e-05
1.52392e-05
9.0872e-09
1.52382e-05
1.23503e-08
1.52321e-05
2.07054e-09
1.5229e-05
1.19726e-08
1.52318e-05
3.96096e-08
1.52311e-05
4.19387e-08
1.52258e-05
3.41813e-08
1.522e-05
3.2408e-08
1.52144e-05
3.8835e-08
1.52111e-05
4.96746e-08
1.52112e-05
6.92088e-08
1.52124e-05
8.04124e-08
1.5214e-05
8.5194e-08
1.52169e-05
8.73343e-08
1.52206e-05
9.01228e-08
1.52239e-05
8.77466e-08
1.52266e-05
8.37228e-08
1.52292e-05
7.89546e-08
1.52321e-05
7.57292e-08
7.19453e-08
1.52352e-05
1.59674e-05
9.03451e-09
1.59664e-05
1.33277e-08
1.59611e-05
7.3819e-09
1.59574e-05
1.57098e-08
1.5959e-05
3.79622e-08
1.59587e-05
4.22706e-08
1.59541e-05
3.87891e-08
1.59486e-05
3.79233e-08
1.59434e-05
4.39493e-08
1.59404e-05
5.26746e-08
1.59406e-05
6.90917e-08
1.59419e-05
7.90376e-08
1.59435e-05
8.35793e-08
1.59462e-05
8.46869e-08
1.59497e-05
8.66408e-08
1.5953e-05
8.44533e-08
1.59558e-05
8.08724e-08
1.59585e-05
7.62399e-08
1.59613e-05
7.29472e-08
6.89438e-08
1.59643e-05
1.67305e-05
9.16811e-09
1.67292e-05
1.45478e-08
1.67248e-05
1.18041e-08
1.67209e-05
1.9645e-08
1.67213e-05
3.75305e-08
1.6721e-05
4.25945e-08
1.67171e-05
4.26472e-08
1.67121e-05
4.29643e-08
1.67074e-05
4.86478e-08
1.67046e-05
5.54339e-08
1.67048e-05
6.89569e-08
1.67063e-05
7.75527e-08
1.6708e-05
8.18592e-08
1.67105e-05
8.22078e-08
1.67137e-05
8.33941e-08
1.6717e-05
8.11843e-08
1.67199e-05
7.79756e-08
1.67227e-05
7.3429e-08
1.67255e-05
7.01678e-08
6.6056e-08
1.67284e-05
1.75301e-05
9.40793e-09
1.75287e-05
1.59727e-08
1.7525e-05
1.55357e-08
1.75211e-05
2.34949e-08
1.75204e-05
3.82031e-08
1.75198e-05
4.32228e-08
1.75167e-05
4.58076e-08
1.75122e-05
4.73929e-08
1.7508e-05
5.29018e-08
1.75054e-05
5.79927e-08
1.75055e-05
6.88604e-08
1.75071e-05
7.60065e-08
1.75089e-05
8.00133e-08
1.75113e-05
7.98024e-08
1.75143e-05
8.03516e-08
1.75175e-05
7.79846e-08
1.75205e-05
7.50275e-08
1.75233e-05
7.05889e-08
1.75262e-05
6.73239e-08
6.3258e-08
1.7529e-05
1.8368e-05
9.71178e-09
1.83664e-05
1.76544e-08
1.83631e-05
1.87478e-08
1.83596e-05
2.70214e-08
1.83581e-05
3.97219e-08
1.8357e-05
4.43391e-08
1.83544e-05
4.844e-08
1.83506e-05
5.11593e-08
1.83468e-05
5.66549e-08
1.83445e-05
6.03221e-08
1.83445e-05
6.88604e-08
1.83461e-05
7.44579e-08
1.8348e-05
7.80567e-08
1.83504e-05
7.74195e-08
1.83533e-05
7.7419e-08
1.83564e-05
7.48931e-08
1.83594e-05
7.20433e-08
1.83623e-05
6.77363e-08
1.83651e-05
6.44395e-08
6.04675e-08
1.83679e-05
1.9246e-05
1.00649e-08
1.92442e-05
1.95256e-08
1.92412e-05
2.16649e-08
1.92381e-05
3.01574e-08
1.92361e-05
4.17375e-08
1.92345e-05
4.59814e-08
1.92321e-05