/*--------------------------------*- C++ -*----------------------------------*\
| =========                 |                                                 |
| \\      /  F ield         | OpenFOAM: The Open Source CFD Toolbox           |
|  \\    /   O peration     | Version:  2506                                  |
|   \\  /    A nd           | Website:  www.openfoam.com                      |
|    \\/     M anipulation  |                                                 |
\*---------------------------------------------------------------------------*/
FoamFile
{
    version     2.0;
    format      ascii;
    arch        "LSB;label=32;scalar=64";
    class       surfaceScalarField;
    location    "2.35";
    object      phi;
}
// * * * * * * * * * * * * * * * * * * * * * * * * * * * * * * * * * * * * * //

dimensions      [0 3 -1 0 0 0 0];

oriented        oriented;

internalField   nonuniform List<scalar> 
19000
(
1.16352e-06
3.63314e-08
1.18001e-06
-4.6695e-07
1.21849e-06
2.7175e-07
1.14235e-06
6.92021e-07
1.10942e-06
-8.05072e-09
1.16971e-06
-3.58128e-07
1.18822e-06
-5.84641e-07
1.16952e-06
-4.43244e-07
1.19325e-06
3.58295e-07
1.14992e-06
1.26261e-07
1.15552e-06
5.55683e-07
1.13064e-06
3.86534e-07
1.1252e-06
-1.41452e-08
1.1376e-06
-3.47039e-08
1.1378e-06
-2.02843e-07
1.13979e-06
-1.09855e-07
1.15182e-06
-1.95833e-07
1.1436e-06
-1.5491e-07
1.15297e-06
-1.14564e-07
-2.46725e-07
1.1042e-06
1.2179e-06
4.26904e-08
1.23418e-06
-4.83232e-07
1.27285e-06
2.33089e-07
1.20639e-06
7.58474e-07
1.16805e-06
3.02956e-08
1.22392e-06
-4.14005e-07
1.24448e-06
-6.05198e-07
1.22669e-06
-4.25448e-07
1.24673e-06
3.38249e-07
1.20903e-06
1.63966e-07
1.20188e-06
5.6283e-07
1.19638e-06
3.92036e-07
1.17936e-06
2.87304e-09
1.20156e-06
-5.69041e-08
1.19157e-06
-1.92857e-07
1.20743e-06
-1.2571e-07
1.20154e-06
-1.8995e-07
1.21525e-06
-1.68619e-07
1.19834e-06
-9.76467e-08
-2.36886e-07
1.1885e-06
1.2744e-06
5.10705e-08
1.29006e-06
-4.98884e-07
1.32559e-06
1.97552e-07
1.2779e-06
8.06165e-07
1.23314e-06
7.5056e-08
1.28063e-06
-4.61494e-07
1.30161e-06
-6.26179e-07
1.28827e-06
-4.12106e-07
1.30016e-06
3.26362e-07
1.27401e-06
1.90108e-07
1.25456e-06
5.82284e-07
1.26303e-06
3.83571e-07
1.24213e-06
2.37671e-08
1.26141e-06
-7.6181e-08
1.25344e-06
-1.84883e-07
1.26542e-06
-1.37692e-07
1.26249e-06
-1.87026e-07
1.27049e-06
-1.76612e-07
1.26338e-06
-9.0536e-08
-2.18226e-07
1.24472e-06
1.33372e-06
6.14487e-08
1.34805e-06
-5.13206e-07
1.37836e-06
1.67244e-07
1.35146e-06
8.33059e-07
1.30393e-06
1.22589e-07
1.34004e-06
-4.97607e-07
1.3595e-06
-6.45639e-07
1.35195e-06
-4.04553e-07
1.35621e-06
3.221e-07
1.33961e-06
2.06712e-07
1.31753e-06
6.04363e-07
1.32842e-06
3.72677e-07
1.31323e-06
3.89538e-08
1.3227e-06
-8.56436e-08
1.32062e-06
-1.82811e-07
1.32747e-06
-1.44542e-07
1.32709e-06
-1.8664e-07
1.33192e-06
-1.81444e-07
1.32781e-06
-8.6426e-08
-1.98289e-07
1.30787e-06
1.39693e-06
7.28764e-08
1.40841e-06
-5.24688e-07
1.43265e-06
1.43006e-07
1.42401e-06
8.41692e-07
1.37961e-06
1.66987e-07
1.40256e-06
-5.2055e-07
1.41917e-06
-6.62247e-07
1.41607e-06
-4.01454e-07
1.41574e-06
3.22422e-07
1.40449e-06
2.17965e-07
1.38791e-06
6.20944e-07
1.39638e-06
3.64208e-07
1.38799e-06
4.73382e-08
1.39053e-06
-8.81789e-08
1.38982e-06
-1.82097e-07
1.39544e-06
-1.50168e-07
1.39418e-06
-1.85384e-07
1.39775e-06
-1.85009e-07
1.39449e-06
-8.31691e-08
-1.78459e-07
1.37466e-06
1.46482e-06
8.37306e-08
1.47171e-06
-5.31577e-07
1.49021e-06
1.24511e-07
1.4952e-06
8.36702e-07
1.45911e-06
2.03071e-07
1.46911e-06
-5.30551e-07
1.48157e-06
-6.74704e-07
1.48083e-06
-4.00713e-07
1.47903e-06
3.24224e-07
1.47067e-06
2.26325e-07
1.46175e-06
6.29867e-07
1.46868e-06
3.57272e-07
1.46428e-06
5.17399e-08
1.46376e-06
-8.76541e-08
1.46157e-06
-1.79908e-07
1.46632e-06
-1.54917e-07
1.4642e-06
-1.83263e-07
1.46576e-06
-1.86574e-07
1.46357e-06
-8.09739e-08
-1.58618e-07
1.44372e-06
1.53751e-06
9.24399e-08
1.53875e-06
-5.32817e-07
1.55245e-06
1.10808e-07
1.56659e-06
8.2256e-07
1.54105e-06
2.28615e-07
1.54048e-06
-5.29984e-07
1.54739e-06
-6.81618e-07
1.54729e-06
-4.00612e-07
1.54611e-06
3.25402e-07
1.54024e-06
2.32202e-07
1.53781e-06
6.32299e-07
1.54494e-06
3.50135e-07
1.54236e-06
5.43208e-08
1.54046e-06
-8.57511e-08
1.5366e-06
-1.76047e-07
1.53956e-06
-1.57884e-07
1.5369e-06
-1.80599e-07
1.5361e-06
-1.85774e-07
1.53463e-06
-7.95043e-08
-1.39017e-07
1.51503e-06
1.61439e-06
9.81831e-08
1.61021e-06
-5.28642e-07
1.62009e-06
1.00932e-07
1.63995e-06
8.02693e-07
1.62428e-06
2.44288e-07
1.61666e-06
-5.22365e-07
1.61718e-06
-6.82139e-07
1.6165e-06
-3.9993e-07
1.61697e-06
3.24933e-07
1.61398e-06
2.35191e-07
1.61654e-06
6.29744e-07
1.62442e-06
3.42255e-07
1.6227e-06
5.60357e-08
1.61983e-06
-8.28827e-08
1.61487e-06
-1.71083e-07
1.61568e-06
-1.58697e-07
1.61245e-06
-1.77367e-07
1.60927e-06
-1.82598e-07
1.60804e-06
-7.82679e-08
-1.19882e-07
1.5889e-06
1.69467e-06
1.01083e-07
1.68647e-06
-5.20437e-07
1.69326e-06
9.41391e-08
1.71634e-06
7.79617e-07
1.70839e-06
2.52234e-07
1.69708e-06
-5.11054e-07
1.69141e-06
-6.76471e-07
1.68935e-06
-3.9787e-07
1.69159e-06
3.22699e-07
1.69167e-06
2.35105e-07
1.69825e-06
6.23164e-07
1.70658e-06
3.33928e-07
1.7054e-06
5.72203e-08
1.70166e-06
-7.91508e-08
1.69619e-06
-1.65606e-07
1.69494e-06
-1.57455e-07
1.69119e-06
-1.73614e-07
1.68575e-06
-1.77157e-07
1.68432e-06
-7.6837e-08
-1.01382e-07
1.66582e-06
1.77794e-06
1.01867e-07
1.76752e-06
-5.10019e-07
1.77182e-06
8.98404e-08
1.79622e-06
7.55218e-07
1.79369e-06
2.54764e-07
1.7811e-06
-4.98464e-07
1.77034e-06
-6.65716e-07
1.76657e-06
-3.94093e-07
1.77014e-06
3.19126e-07
1.77292e-06
2.32327e-07
1.78287e-06
6.13213e-07
1.7912e-06
3.25595e-07
1.7905e-06
5.79189e-08
1.78598e-06
-7.46307e-08
1.78051e-06
-1.60131e-07
1.77748e-06
-1.54423e-07
1.77338e-06
-1.69514e-07
1.76597e-06
-1.69753e-07
1.76396e-06
-7.48284e-08
-8.37476e-08
1.74633e-06
1.86425e-06
1.01366e-07
1.85314e-06
-4.98911e-07
1.85548e-06
8.74991e-08
1.8799e-06
7.30799e-07
1.88092e-06
2.53748e-07
1.8684e-06
-4.85946e-07
1.85401e-06
-6.5133e-07
1.8486e-06
-3.8868e-07
1.85299e-06
3.14731e-07
1.85768e-06
2.27642e-07
1.87037e-06
6.0052e-07
1.87839e-06
3.17577e-07
1.87828e-06
5.80294e-08
1.87303e-06
-6.93802e-08
1.86795e-06
-1.55047e-07
1.86344e-06
-1.49917e-07
1.85914e-06
-1.65214e-07
1.85028e-06
-1.60888e-07
1.84735e-06
-7.19033e-08
-6.72844e-08
1.83089e-06
1.95401e-06
1.00198e-07
1.94308e-06
-4.87986e-07
1.94397e-06
8.66091e-08
1.96773e-06
7.07037e-07
1.97095e-06
2.50533e-07
1.95903e-06
-4.74032e-07
1.94235e-06
-6.34646e-07
1.93562e-06
-3.81948e-07
1.94051e-06
3.0984e-07
1.94625e-06
2.219e-07
1.96107e-06
5.85699e-07
1.96858e-06
3.10069e-07
1.96919e-06
5.74163e-08
1.96323e-06
-6.34197e-08
1.95875e-06
-1.50564e-07
1.9531e-06
-1.44269e-07
1.94862e-06
-1.60727e-07
1.9389e-06
-1.51173e-07
1.93479e-06
-6.77924e-08
-5.23102e-08
1.91982e-06
2.04767e-06
9.8716e-08
2.03721e-06
-4.77524e-07
2.03711e-06
8.67118e-08
2.06008e-06
6.84061e-07
2.06458e-06
2.46039e-07
2.0533e-06
-4.62754e-07
2.03531e-06
-6.16658e-07
2.02759e-06
-3.7423e-07
2.03289e-06
3.04545e-07
2.03901e-06
2.15775e-07
2.05546e-06
5.69251e-07
2.06234e-06
3.03194e-07
2.06377e-06
5.59789e-08
2.0571e-06
-5.67458e-08
2.05324e-06
-1.46701e-07
2.04679e-06
-1.37824e-07
2.04195e-06
-1.55892e-07
2.03202e-06
-1.41237e-07
2.02658e-06
-6.23558e-08
-3.90145e-08
2.01329e-06
2.14563e-06
9.70839e-08
2.13556e-06
-4.67452e-07
2.13486e-06
8.74116e-08
2.15726e-06
6.61665e-07
2.16243e-06
2.40866e-07
2.15157e-06
-4.51895e-07
2.13293e-06
-5.98016e-07
2.12445e-06
-3.65752e-07
2.1302e-06
2.98793e-07
2.13628e-06
2.09704e-07
2.15403e-06
5.515e-07
2.1602e-06
2.97023e-07
2.1625e-06
5.36749e-08
2.15513e-06
-4.93712e-08
2.15175e-06
-1.43319e-07
2.14485e-06
-1.30929e-07
2.13937e-06
-1.50413e-07
2.12978e-06
-1.31639e-07
2.12307e-06
-5.56521e-08
-2.73433e-08
2.1114e-06
2.2482e-06
9.53686e-08
2.23832e-06
-4.57569e-07
2.23734e-06
8.83886e-08
2.25947e-06
6.39535e-07
2.26497e-06
2.35369e-07
2.25423e-06
-4.41157e-07
2.23533e-06
-5.79109e-07
2.2262e-06
-3.56621e-07
2.23252e-06
2.92472e-07
2.23828e-06
2.03936e-07
2.25718e-06
5.32608e-07
2.26261e-06
2.91589e-07
2.26576e-06
5.05265e-08
2.25776e-06
-4.13709e-08
2.2546e-06
-1.40159e-07
2.24763e-06
-1.23957e-07
2.24114e-06
-1.4393e-07
2.2323e-06
-1.22802e-07
2.22462e-06
-4.79657e-08
-1.69635e-08
2.21424e-06
2.35565e-06
9.35902e-08
2.34576e-06
-4.47678e-07
2.34474e-06
8.94067e-08
2.36687e-06
6.17413e-07
2.37252e-06
2.29712e-07
2.36163e-06
-4.30262e-07
2.34269e-06
-5.60175e-07
2.33293e-06
-3.46854e-07
2.33994e-06
2.85464e-07
2.34526e-06
1.98614e-07
2.36521e-06
5.12651e-07
2.36992e-06
2.86886e-07
2.37382e-06
4.6621e-08
2.36536e-06
-3.29058e-08
2.36208e-06
-1.36881e-07
2.3554e-06
-1.1728e-07
2.34761e-06
-1.3614e-07
2.33973e-06
-1.14923e-07
2.3315e-06
-3.97274e-08
-7.40589e-09
2.32194e-06
2.46824e-06
9.17435e-08
2.45819e-06
-4.37625e-07
2.45729e-06
9.03071e-08
2.47954e-06
5.95163e-07
2.48533e-06
2.2392e-07
2.47406e-06
-4.18988e-07
2.45526e-06
-5.41383e-07
2.44483e-06
-3.36418e-07
2.45263e-06
2.77668e-07
2.45741e-06
1.93828e-07
2.47838e-06
4.91684e-07
2.4824e-06
2.82861e-07
2.48691e-06
4.21137e-08
2.47824e-06
-2.42324e-08
2.47445e-06
-1.33098e-07
2.46843e-06
-1.11252e-07
2.45918e-06
-1.26894e-07
2.45218e-06
-1.07921e-07
2.44391e-06
-3.14555e-08
1.77737e-09
2.43472e-06
2.58623e-06
8.98081e-08
2.57591e-06
-4.27303e-07
2.57523e-06
9.0983e-08
2.59762e-06
5.72771e-07
2.60361e-06
2.17931e-07
2.5918e-06
-4.07174e-07
2.57329e-06
-5.22878e-07
2.56214e-06
-3.25263e-07
2.57079e-06
2.69019e-07
2.57499e-06
1.89631e-07
2.59687e-06
4.69801e-07
2.60033e-06
2.79399e-07
2.60521e-06
3.72328e-08
2.59667e-06
-1.56959e-08
2.59199e-06
-1.28413e-07
2.58687e-06
-1.06135e-07
2.57629e-06
-1.16308e-07
2.56975e-06
-1.01388e-07
2.56202e-06
-2.37245e-08
1.08817e-08
2.55292e-06
2.70988e-06
8.77566e-08
2.69921e-06
-4.16634e-07
2.69885e-06
9.13475e-08
2.7213e-06
5.50319e-07
2.7276e-06
2.11631e-07
2.71512e-06
-3.94701e-07
2.69705e-06
-5.04801e-07
2.68512e-06
-3.13339e-07
2.69464e-06
2.59503e-07
2.69824e-06
1.8603e-07
2.72088e-06
4.47158e-07
2.72396e-06
2.76318e-07
2.72893e-06
3.22687e-08
2.72092e-06
-7.68655e-09
2.71497e-06
-1.22466e-07
2.71089e-06
-1.02053e-07
2.6993e-06
-1.04722e-07
2.69265e-06
-9.47348e-08
2.68601e-06
-1.70869e-08
2.00337e-08
2.67686e-06
2.83947e-06
8.55592e-08
2.82838e-06
-4.05547e-07
2.82842e-06
9.13083e-08
2.85079e-06
5.27944e-07
2.85753e-06
2.04889e-07
2.8443e-06
-3.81467e-07
2.82678e-06
-4.87279e-07
2.81407e-06
-3.00625e-07
2.82441e-06
2.49158e-07
2.82747e-06
1.82973e-07
2.85065e-06
4.23978e-07
2.85359e-06
2.73381e-07
2.85831e-06
2.75394e-08
2.8512e-06
-5.74595e-10
2.84375e-06
-1.15011e-07
2.84064e-06
-9.89419e-08
2.82854e-06
-9.26214e-08
2.82123e-06
-8.74322e-08
2.816e-06
-1.18512e-08
2.91201e-08
2.80691e-06
2.97527e-06
8.31879e-08
2.9637e-06
-3.93976e-07
2.96425e-06
9.07557e-08
2.98638e-06
5.05812e-07
2.9937e-06
1.97571e-07
2.97962e-06
-3.67387e-07
2.96275e-06
-4.70413e-07
2.94927e-06
-2.87146e-07
2.96035e-06
2.38081e-07
2.96299e-06
1.80331e-07
2.98642e-06
4.00551e-07
2.98949e-06
2.70312e-07
2.99366e-06
2.33697e-08
2.98774e-06
5.34627e-09
2.97871e-06
-1.05986e-07
2.97629e-06
-9.65174e-08
2.96423e-06
-8.05642e-08
2.95593e-06
-7.9135e-08
2.9521e-06
-8.01827e-09
3.78162e-08
2.94341e-06
3.11758e-06
8.06178e-08
3.10545e-06
-3.81847e-07
3.10664e-06
8.9564e-08
3.12836e-06
4.84092e-07
3.13638e-06
1.89545e-07
3.12139e-06
-3.52393e-07
3.10523e-06
-4.5425e-07
3.09107e-06
-2.72985e-07
3.10271e-06
2.26435e-07
3.10515e-06
1.77899e-07
3.12849e-06
3.77203e-07
3.13196e-06
2.66846e-07
3.1353e-06
2.00326e-08
3.13073e-06
9.90953e-09
3.12026e-06
-9.55141e-08
3.11809e-06
-9.43434e-08
3.1066e-06
-6.90792e-08
3.0972e-06
-6.97332e-08
3.09448e-06
-5.30228e-09
4.56692e-08
3.08663e-06
3.2667e-06
7.78273e-08
3.25394e-06
-3.69082e-07
3.2559e-06
8.76005e-08
3.27704e-06
4.62947e-07
3.28588e-06
1.80706e-07
3.26995e-06
-3.36459e-07
3.25448e-06
-4.38778e-07
3.23978e-06
-2.58289e-07
3.25178e-06
2.14437e-07
3.25426e-06
1.75416e-07
3.27719e-06
3.54272e-07
3.28128e-06
2.62757e-07
3.2836e-06
1.77152e-08
3.2804e-06
1.31088e-08
3.26875e-06
-8.38596e-08
3.26636e-06
-9.19597e-08
3.25584e-06
-5.85569e-08
3.24542e-06
-5.93167e-08
3.24339e-06
-3.26706e-09
5.22189e-08
3.23684e-06
3.42296e-06
7.47986e-08
3.40949e-06
-3.55612e-07
3.41235e-06
8.47411e-08
3.43278e-06
4.42519e-07
3.4425e-06
1.70984e-07
3.42566e-06
-3.19617e-07
3.4108e-06
-4.23917e-07
3.39577e-06
-2.43263e-07
3.40785e-06
2.02357e-07
3.41066e-06
1.72606e-07
3.43288e-06
3.32049e-07
3.43773e-06
2.57907e-07
3.43895e-06
1.6496e-08
3.437e-06
1.50649e-08
3.4245e-06
-7.13626e-08
3.42149e-06
-8.89535e-08
3.41217e-06
-4.92344e-08
3.40096e-06
-4.81088e-08
3.39913e-06
-1.4374e-09
5.70973e-08
3.39425e-06
3.58669e-06
7.1517e-08
3.57246e-06
-3.4138e-07
3.57631e-06
8.08872e-08
3.59592e-06
4.22915e-07
3.60653e-06
1.60369e-07
3.58889e-06
-3.01975e-07
3.57449e-06
-4.09521e-07
3.55941e-06
-2.28178e-07
3.57126e-06
1.90508e-07
3.57466e-06
1.69201e-07
3.59596e-06
3.10754e-07
3.60159e-06
2.52274e-07
3.60175e-06
1.63383e-08
3.60082e-06
1.59894e-08
3.58784e-06
-5.83777e-08
3.5839e-06
-8.50113e-08
3.57589e-06
-4.1228e-08
3.56418e-06
-3.64006e-08
3.56208e-06
6.69804e-10
6.00752e-08
3.5591e-06
3.75825e-06
6.79712e-08
3.74322e-06
-3.26347e-07
3.74813e-06
7.5977e-08
3.76685e-06
4.04199e-07
3.7783e-06
1.48919e-07
3.76004e-06
-2.83719e-07
3.7459e-06
-3.95384e-07
3.73108e-06
-2.13358e-07
3.74238e-06
1.79214e-07
3.74658e-06
1.64996e-07
3.76684e-06
2.90494e-07
3.77316e-06
2.4596e-07
3.77237e-06
1.71231e-08
3.77223e-06
1.61316e-08
3.75911e-06
-4.52555e-08
3.75398e-06
-7.98867e-08
3.74734e-06
-3.45869e-08
3.73546e-06
-2.45199e-08
3.73263e-06
3.49758e-09
6.11395e-08
3.73157e-06
3.938e-06
6.41549e-08
3.92216e-06
-3.10502e-07
3.92814e-06
6.99919e-08
3.94597e-06
3.86375e-07
3.95811e-06
1.36775e-07
3.93952e-06
-2.65123e-07
3.92537e-06
-3.8124e-07
3.91118e-06
-1.99161e-07
3.92164e-06
1.6875e-07
3.92671e-06
1.59923e-07
3.94597e-06
2.71238e-07
3.95278e-06
2.3915e-07
3.95118e-06
1.87156e-08
3.95161e-06
1.57074e-08
3.93863e-06
-3.22729e-08
3.93221e-06
-7.34729e-08
3.92684e-06
-2.92107e-08
3.91522e-06
-1.29053e-08
3.91126e-06
7.45549e-09
6.05373e-08
3.91187e-06
4.12634e-06
6.00674e-08
4.1097e-06
-2.93861e-07
4.11673e-06
6.29593e-08
4.13372e-06
3.69389e-07
4.14633e-06
1.24162e-07
4.12774e-06
-2.46539e-07
4.11328e-06
-3.6678e-07
4.10007e-06
-1.85949e-07
4.1095e-06
1.59321e-07
4.11537e-06
1.54054e-07
4.13376e-06
2.52847e-07
4.14085e-06
2.32065e-07
4.13854e-06
2.10193e-08
4.13938e-06
1.48682e-08
4.12677e-06
-1.96616e-08
4.11901e-06
-6.57129e-08
4.1147e-06
-2.48988e-08
4.10386e-06
-2.06287e-09
4.09854e-06
1.2776e-08
5.88558e-08
4.10022e-06
4.32365e-06
5.57167e-08
4.30627e-06
-2.76474e-07
4.31426e-06
5.49602e-08
4.33054e-06
3.53114e-07
4.3433e-06
1.11401e-07
4.32516e-06
-2.28394e-07
4.31004e-06
-3.51668e-07
4.29814e-06
-1.74045e-07
4.30647e-06
1.5099e-07
4.31291e-06
1.4762e-07
4.33063e-06
2.35122e-07
4.33782e-06
2.24878e-07
4.33482e-06
2.40118e-08
4.33599e-06
1.37031e-08
4.32393e-06
-7.60185e-09
4.31485e-06
-5.66383e-08
4.31128e-06
-2.1323e-08
4.3017e-06
7.51297e-09
4.29511e-06
1.93731e-08
5.69694e-08
4.29699e-06
4.53037e-06
5.11219e-08
4.51232e-06
-2.5843e-07
4.52114e-06
4.61427e-08
4.53691e-06
3.37347e-07
4.54944e-06
9.88719e-08
4.53218e-06
-2.11138e-07
4.51611e-06
-3.35596e-07
4.50574e-06
-1.63672e-07
4.51306e-06
1.43664e-07
4.51976e-06
1.40925e-07
4.53695e-06
2.17933e-07
4.54415e-06
2.17673e-07
4.54044e-06
2.77248e-08
4.54184e-06
1.23074e-08
4.53052e-06
3.71797e-09
4.52023e-06
-4.63547e-08
4.51701e-06
-1.81013e-08
4.50903e-06
1.54943e-08
4.5016e-06
2.67985e-08
5.57871e-08
4.50279e-06
4.74692e-06
4.63149e-08
4.72836e-06
-2.39865e-07
4.73777e-06
3.6733e-08
4.75332e-06
3.21797e-07
4.76516e-06
8.70237e-08
4.74928e-06
-1.95252e-07
4.732e-06
-3.18315e-07
4.72317e-06
-1.54841e-07
4.72981e-06
1.37021e-07
4.73639e-06
1.34342e-07
4.75312e-06
2.01207e-07
4.76032e-06
2.10467e-07
4.75584e-06
3.22121e-08
4.75732e-06
1.08296e-08
4.74696e-06
1.40691e-08
4.73564e-06
-3.5026e-08
4.73243e-06
-1.4892e-08
4.7261e-06
2.18199e-08
4.71852e-06
3.43809e-08
5.59151e-08
4.71839e-06
4.97377e-06
4.13425e-08
4.95487e-06
-2.20966e-07
4.96456e-06
2.70439e-08
4.98026e-06
3.06097e-07
4.99096e-06
7.63221e-08
4.97688e-06
-1.81173e-07
4.95829e-06
-2.99723e-07
4.95071e-06
-1.47261e-07
4.95718e-06
1.30552e-07
4.96335e-06
1.28172e-07
4.97956e-06
1.84995e-07
4.98679e-06
2.03235e-07
4.98151e-06
3.74995e-08
4.98282e-06
9.51824e-09
4.97371e-06
2.31782e-08
4.96156e-06
-2.28806e-08
4.9581e-06
-1.14271e-08
4.95329e-06
2.66261e-08
4.94618e-06
4.14925e-08
5.74468e-08
4.94465e-06
5.21139e-06
3.62675e-08
5.19239e-06
-2.01968e-07
5.20196e-06
1.74753e-08
5.21825e-06
2.89809e-07
5.22738e-06
6.71889e-08
5.21538e-06
-1.69172e-07
5.19566e-06
-2.79997e-07
5.18878e-06
-1.40384e-07
5.19557e-06
1.23759e-07
5.20119e-06
1.22552e-07
5.21672e-06
1.69468e-07
5.224e-06
1.95958e-07
5.21792e-06
4.3578e-08
5.21882e-06
8.62323e-09
5.21115e-06
3.08462e-08
5.19855e-06
-1.02863e-08
5.1946e-06
-7.47865e-09
5.1911e-06
3.01345e-08
5.18484e-06
4.77505e-08
6.00239e-08
5.18226e-06
5.46029e-06
3.11672e-08
5.44148e-06
-1.83159e-07
5.45045e-06
8.50493e-09
5.46781e-06
2.72446e-07
5.47507e-06
5.99295e-08
5.46509e-06
-1.59188e-07
5.44482e-06
-2.59726e-07
5.43801e-06
-1.33578e-07
5.44534e-06
1.1643e-07
5.45048e-06
1.17412e-07
5.46505e-06
1.54894e-07
5.47235e-06
1.88666e-07
5.46556e-06
5.03689e-08
5.46582e-06
8.35928e-09
5.4598e-06
3.68682e-08
5.44712e-06
2.38764e-09
5.44252e-06
-2.87564e-09
5.44009e-06
3.25605e-08
5.43484e-06
5.30093e-08
6.31471e-08
5.43171e-06
5.72099e-06
2.61344e-08
5.7027e-06
-1.64873e-07
5.71052e-06
6.90455e-10
5.7295e-06
2.53466e-07
5.73478e-06
5.46454e-08
5.72631e-06
-1.50713e-07
5.70632e-06
-2.39741e-07
5.6991e-06
-1.26355e-07
5.70687e-06
1.08662e-07
5.71163e-06
1.1265e-07
5.72498e-06
1.4154e-07
5.73222e-06
1.81429e-07
5.7249e-06
5.769e-08
5.72444e-06
8.81877e-09
5.72019e-06
4.11147e-08
5.70784e-06
1.47435e-08
5.70239e-06
2.571e-09
5.70087e-06
3.40817e-08
5.69666e-06
5.72226e-08
6.64184e-08
5.69339e-06
5.99405e-06
2.12724e-08
5.97666e-06
-1.47474e-07
5.98274e-06
-5.39735e-09
6.00377e-06
2.32444e-07
6.00734e-06
5.10672e-08
5.99954e-06
-1.42905e-07
5.98054e-06
-2.20747e-07
5.97265e-06
-1.18465e-07
5.9804e-06
1.0091e-07
5.98483e-06
1.08227e-07
5.99677e-06
1.29599e-07
6.00404e-06
1.74155e-07
5.99657e-06
6.51595e-08
5.99537e-06
1.00185e-08
5.99291e-06
4.35743e-08
5.98126e-06
2.64018e-08
5.97483e-06
8.99362e-09
5.97397e-06
3.49468e-08
5.97089e-06
6.03034e-08
6.9606e-08
5.9677e-06
6.28008e-06
1.66854e-08
6.26393e-06
-1.3133e-07
6.26792e-06
-9.38407e-09
6.29083e-06
2.09533e-07
6.29348e-06
4.84105e-08
6.28548e-06
-1.34897e-07
6.26777e-06
-2.03041e-07
6.25908e-06
-1.09773e-07
6.26603e-06
9.39577e-08
6.26996e-06
1.04295e-07
6.2807e-06
1.18857e-07
6.28846e-06
1.66397e-07
6.28132e-06
7.23065e-08
6.27934e-06
1.19916e-08
6.27846e-06
4.44518e-08
6.26795e-06
3.69163e-08
6.26052e-06
1.64205e-08
6.25993e-06
3.5542e-08
6.25811e-06
6.21259e-08
7.25249e-08
6.25519e-06
6.57969e-06
1.24695e-08
6.56514e-06
-1.16782e-07
6.56699e-06
-1.12345e-08
6.59104e-06
1.85481e-07
6.59376e-06
4.56868e-08
6.58504e-06
-1.26172e-07
6.56838e-06
-1.86383e-07
6.55875e-06
-1.0014e-07
6.56456e-06
8.81492e-08
6.56811e-06
1.00737e-07
6.57797e-06
1.09005e-07
6.58637e-06
1.57989e-07
6.57988e-06
7.87999e-08
6.57703e-06
1.48425e-08
6.57741e-06
4.40766e-08
6.56845e-06
4.58718e-08
6.56018e-06
2.46872e-08
6.55938e-06
3.63495e-08
6.55885e-06
6.26518e-08
7.49252e-08
6.55645e-06
6.89355e-06
8.70561e-09
6.88091e-06
-1.04136e-07
6.88082e-06
-1.11454e-08
6.90506e-06
1.61239e-07
6.90863e-06
4.21134e-08
6.89916e-06
-1.16694e-07
6.88313e-06
-1.70359e-07
6.87288e-06
-8.98842e-08
6.87764e-06
8.33891e-08
6.88087e-06
9.75044e-08
6.88978e-06
1.00097e-07
6.89866e-06
1.49103e-07
6.89294e-06
8.45243e-08
6.88915e-06
1.86357e-08
6.89039e-06
4.28335e-08
6.88326e-06
5.29982e-08
6.87454e-06
3.34093e-08
6.87306e-06
3.78272e-08
6.87365e-06
6.20676e-08
7.64955e-08
6.87208e-06
7.22239e-06
5.45426e-09
7.21186e-06
-9.36097e-08
7.21016e-06
-9.44132e-09
7.23371e-06
1.37689e-07
7.23852e-06
3.72965e-08
7.22857e-06
-1.06743e-07
7.21305e-06
-1.54835e-07
7.20273e-06
-7.95657e-08
7.20626e-06
7.98631e-08
7.20885e-06
9.49102e-08
7.21681e-06
9.21415e-08
7.22606e-06
1.39844e-07
7.22118e-06
8.94039e-08
7.21646e-06
2.33581e-08
7.2181e-06
4.11983e-08
7.21295e-06
5.81446e-08
7.20426e-06
4.20968e-08
7.20183e-06
4.02571e-08
7.20312e-06
6.0777e-08
7.69708e-08
7.20265e-06
7.56693e-06
2.75291e-09
7.55857e-06
-8.52504e-08
7.55572e-06
-6.5952e-09
7.57778e-06
1.15631e-07
7.58391e-06
3.11686e-08
7.57402e-06
-9.6854e-08
7.55912e-06
-1.39933e-07
7.54896e-06
-6.94129e-08
7.55105e-06
7.77719e-08
7.55269e-06
9.32779e-08
7.55968e-06
8.51439e-08
7.56924e-06
1.30288e-07
7.56531e-06
9.33324e-08
7.55975e-06
2.89244e-08
7.56131e-06
3.96361e-08
7.55813e-06
6.1324e-08
7.54999e-06
5.024e-08
7.54657e-06
4.36726e-08
7.54804e-06
5.93098e-08
7.6257e-08
7.54875e-06
7.92795e-06
6.12788e-10
7.92154e-06
-7.88375e-08
7.91823e-06
-3.28346e-09
7.9381e-06
9.57586e-08
7.94559e-06
2.36733e-08
7.93602e-06
-8.72832e-08
7.9222e-06
-1.26105e-07
7.91235e-06
-5.95634e-08
7.91251e-06
7.76052e-08
7.91312e-06
9.26751e-08
7.91916e-06
7.91e-08
7.92888e-06
1.20569e-07
7.92603e-06
9.61779e-08
7.9198e-06
3.516e-08
7.92088e-06
3.85515e-08
7.91948e-06
6.2722e-08
7.91234e-06
5.73871e-08
7.90812e-06
4.78898e-08
7.90927e-06
5.8162e-08
7.4496e-08
7.91103e-06
8.30627e-06
-9.74729e-10
8.30144e-06
-7.40109e-08
8.29826e-06
-1.04368e-10
8.31544e-06
7.85779e-08
8.32434e-06
1.47761e-08
8.31512e-06
-7.80641e-08
8.30238e-06
-1.13367e-07
8.29252e-06
-4.97038e-08
8.29109e-06
7.90399e-08
8.29105e-06
9.27166e-08
8.29608e-06
7.40624e-08
8.3057e-06
1.10956e-07
8.30409e-06
9.7783e-08
8.29744e-06
4.18128e-08
8.29772e-06
3.8274e-08
8.29778e-06
6.2657e-08
8.29199e-06
6.3182e-08
8.2873e-06
5.25798e-08
8.28779e-06
5.76722e-08
7.20456e-08
8.29024e-06
8.70271e-06
-2.02573e-09
8.69929e-06
-7.05873e-08
8.69623e-06
2.95947e-09
8.71059e-06
6.42109e-08
8.72006e-06
5.3036e-09
8.71172e-06
-6.97209e-08
8.69804e-06
-9.96823e-08
8.6875e-06
-3.91661e-08
8.68743e-06
7.91071e-08
8.68751e-06
9.26427e-08
8.69134e-06
7.02296e-08
8.70051e-06
1.01787e-07
8.70021e-06
9.80777e-08
8.69352e-06
4.85088e-08
8.69276e-06
3.90274e-08
8.69386e-06
6.15653e-08
8.68965e-06
6.739e-08
8.68487e-06
5.73545e-08
8.68458e-06
5.79633e-08
6.93652e-08
8.68726e-06
9.11817e-06
-2.57757e-09
9.11602e-06
-6.84386e-08
9.11289e-06
6.09669e-09
9.12406e-06
5.30398e-08
9.12907e-06
2.86976e-10
9.11825e-06
-5.88952e-08
9.10398e-06
-8.54167e-08
9.09941e-06
-3.45898e-08
9.10282e-06
7.56944e-08
9.10338e-06
9.2083e-08
9.10582e-06
6.77868e-08
9.11426e-06
9.33457e-08
9.11518e-06
9.71586e-08
9.10885e-06
5.48426e-08
9.10703e-06
4.08439e-08
9.10862e-06
5.99756e-08
9.10607e-06
6.99406e-08
9.10162e-06
6.18081e-08
9.10061e-06
5.89708e-08
6.68841e-08
9.10309e-06
9.5536e-06
-2.72064e-09
9.55214e-06
-6.69752e-08
9.5495e-06
8.7373e-09
9.55691e-06
4.56336e-08
9.56026e-06
-3.06473e-09
9.55098e-06
-4.96158e-08
9.53736e-06
-7.17994e-08
9.53323e-06
-3.04606e-08
9.5381e-06
7.08221e-08
9.53921e-06
9.09725e-08
9.54042e-06
6.65842e-08
9.54794e-06
8.58204e-08
9.54987e-06
9.52254e-08
9.54423e-06
6.04838e-08
9.54153e-06
4.35436e-08
9.54314e-06
5.83745e-08
9.54211e-06
7.09693e-08
9.53836e-06
6.55524e-08
9.53684e-06
6.04894e-08
6.48933e-08
9.53883e-06
1.001e-05
-2.55916e-09
1.00087e-05
-6.56684e-08
1.0007e-05
1.04065e-08
1.00118e-05
4.07829e-08
1.0015e-05
-6.20023e-09
1.00071e-05
-4.16851e-08
9.99357e-06
-5.83159e-08
9.98871e-06
-2.56044e-08
9.99408e-06
6.54559e-08
9.99577e-06
8.92776e-08
9.99612e-06
6.62407e-08
1.00025e-05
7.93918e-08
1.00053e-05
9.24967e-08
1.00005e-05
6.52182e-08
9.99725e-06
4.68376e-08
9.99854e-06
5.70849e-08
9.99872e-06
7.07831e-08
9.99595e-06
6.83246e-08
9.99421e-06
6.22255e-08
6.35262e-08
9.99558e-06
1.04883e-05
-2.18979e-09
1.04869e-05
-6.4269e-08
1.04863e-05
1.09316e-08
1.04896e-05
3.75612e-08
1.04917e-05
-8.33204e-09
1.04851e-05
-3.51093e-08
1.04722e-05
-4.54043e-08
1.04665e-05
-1.9862e-08
1.04717e-05
6.02165e-08
1.04741e-05
8.68887e-08
1.04739e-05
6.64452e-08
1.04792e-05
7.4131e-08
1.04824e-05
8.92283e-08
1.04787e-05
6.89332e-08
1.04751e-05
5.04312e-08
1.04759e-05
5.62969e-08
1.04769e-05
6.97379e-08
1.04752e-05
7.00253e-08
1.04736e-05
6.38622e-08
6.27341e-08
1.04744e-05
1.09895e-05
-1.71848e-09
1.09878e-05
-6.25079e-08
1.09886e-05
1.01475e-08
1.09905e-05
3.56516e-08
1.09913e-05
-9.14645e-09
1.09859e-05
-2.97407e-08
1.09741e-05
-3.35436e-08
1.09675e-05
-1.33178e-08
1.09721e-05
5.55938e-08
1.09752e-05
8.38533e-08
1.09747e-05
6.68892e-08
1.09788e-05
7.00503e-08
1.09824e-05
8.56335e-08
1.09797e-05
7.1597e-08
1.09761e-05
5.40353e-08
1.09764e-05
5.60727e-08
1.09779e-05
6.81603e-08
1.09773e-05
7.06928e-08
1.0976e-05
6.51623e-08
6.2337e-08
1.09764e-05
1.15149e-05
-1.24185e-09
1.15126e-05
-6.02149e-08
1.15145e-05
8.26547e-09
1.15155e-05
3.46034e-08
1.15149e-05
-8.50188e-09
1.15105e-05
-2.53174e-08
1.15e-05
-2.30737e-08
1.14929e-05
-6.27125e-09
1.14966e-05
5.19394e-08
1.15001e-05
8.03487e-08
1.14997e-05
6.7317e-08
1.15027e-05
6.70057e-08
1.15064e-05
8.19555e-08
1.15047e-05
7.32603e-08
1.15014e-05
5.74044e-08
1.15011e-05
5.63695e-08
1.15029e-05
6.63636e-08
1.15031e-05
7.04364e-08
1.15023e-05
6.59904e-08
6.20988e-08
1.15025e-05
1.20654e-05
-8.33691e-10
1.20624e-05
-5.71807e-08
1.20651e-05
5.56001e-09
1.20658e-05
3.39375e-08
1.20636e-05
-6.39326e-09
1.20598e-05
-2.14404e-08
1.20509e-05
-1.42503e-08
1.20439e-05
8.16693e-10
1.20464e-05
4.94117e-08
1.205e-05
7.66988e-08
1.20498e-05
6.7546e-08
1.2052e-05
6.48365e-08
1.20555e-05
7.83805e-08
1.20548e-05
7.40101e-08
1.20518e-05
6.03676e-08
1.20512e-05
5.70373e-08
1.20529e-05
6.46044e-08
1.2054e-05
6.94058e-08
1.20537e-05
6.62725e-08
6.183e-08
1.20539e-05
1.26423e-05
-5.31448e-10
1.26383e-05
-5.32331e-08
1.26414e-05
2.5189e-09
1.26422e-05
3.31378e-08
1.26388e-05
-3.04403e-09
1.26351e-05
-1.77302e-08
1.2628e-05
-7.15698e-09
1.26214e-05
7.48927e-09
1.26228e-05
4.79897e-08
1.26262e-05
7.32694e-08
1.26263e-05
6.74864e-08
1.26278e-05
6.3351e-08
1.26311e-05
7.50151e-08
1.26312e-05
7.39575e-08
1.26288e-05
6.27718e-08
1.26279e-05
5.79336e-08
1.26294e-05
6.30532e-08
1.2631e-05
6.7823e-08
1.26313e-05
6.59755e-08
6.14142e-08
1.26317e-05
1.32467e-05
-3.40685e-10
1.32418e-05
-4.82908e-08
1.32447e-05
-3.50048e-10
1.3246e-05
3.17823e-08
1.32419e-05
1.09138e-09
1.3238e-05
-1.37962e-08
1.32324e-05
-1.60799e-09
1.32266e-05
1.33329e-08
1.3227e-05
4.75036e-08
1.323e-05
7.02835e-08
1.32303e-05
6.72079e-08
1.32313e-05
6.23367e-08
1.32344e-05
7.1952e-08
1.32351e-05
7.32336e-08
1.32334e-05
6.45322e-08
1.32324e-05
5.89079e-08
1.32337e-05
6.17805e-08
1.32356e-05
6.5914e-08
1.32364e-05
6.5122e-08
6.07715e-08
1.32371e-05
1.38801e-05
-2.38063e-10
1.38745e-05
-4.26831e-08
1.38767e-05
-2.54944e-09
1.38787e-05
2.97373e-08
1.38743e-05
5.5316e-09
1.38698e-05
-9.34449e-09
1.38654e-05
2.83466e-09
1.38606e-05
1.81086e-08
1.38605e-05
4.76172e-08
1.38629e-05
6.78354e-08
1.38633e-05
6.68434e-08
1.3864e-05
6.16621e-08
1.38667e-05
6.92207e-08
1.38679e-05
7.19873e-08
1.38669e-05
6.56133e-08
1.3866e-05
5.9788e-08
1.3867e-05
6.0789e-08
1.3869e-05
6.38578e-08
1.38704e-05
6.37963e-08
5.98571e-08
1.38713e-05
1.45436e-05
-1.70933e-10
1.45376e-05
-3.66636e-08
1.45389e-05
-3.87591e-09
1.45416e-05
2.70413e-08
1.45373e-05
9.83058e-09
1.45322e-05
-4.26275e-09
1.45284e-05
6.7005e-09
1.45247e-05
2.17943e-08
1.45244e-05
4.79213e-08
1.45263e-05
6.5932e-08
1.45266e-05
6.64879e-08
1.4527e-05
6.12799e-08
1.45294e-05
6.68325e-08
1.45311e-05
7.03173e-08
1.45306e-05
6.60508e-08
1.453e-05
6.04173e-08
1.45308e-05
6.00197e-08
1.45328e-05
6.18121e-08
1.45345e-05
6.2091e-08
5.86833e-08
1.45357e-05
1.52388e-05
-7.53197e-11
1.52329e-05
-3.07634e-08
1.52331e-05
-4.12191e-09
1.52361e-05
2.40582e-08
1.52324e-05
1.35944e-08
1.52267e-05
1.34573e-09
1.5223e-05
1.04864e-08
1.52202e-05
2.45667e-08
1.522e-05
4.80991e-08
1.52215e-05
6.44385e-08
1.52218e-05
6.61716e-08
1.52219e-05
6.11586e-08
1.52239e-05
6.48399e-08
1.52259e-05
6.833e-08
1.52261e-05
6.58822e-08
1.52258e-05
6.07126e-08
1.52265e-05
5.93464e-08
1.52284e-05
5.99078e-08
1.52304e-05
6.00913e-08
5.72766e-08
1.52318e-05
1.59671e-05
1.15463e-10
1.59618e-05
-2.53779e-08
1.59609e-05
-3.27877e-09
1.59637e-05
2.12531e-08
1.59607e-05
1.66085e-08
1.59549e-05
7.11947e-09
1.59509e-05
1.45283e-08
1.59487e-05
2.67874e-08
1.59488e-05
4.8003e-08
1.59501e-05
6.31109e-08
1.59504e-05
6.59012e-08
1.59503e-05
6.12267e-08
1.59519e-05
6.32647e-08
1.5954e-05
6.62337e-08
1.59547e-05
6.51029e-08
1.59548e-05
6.06425e-08
1.59555e-05
5.86266e-08
1.59573e-05
5.8178e-08
1.59594e-05
5.79358e-08
5.56158e-08
1.59611e-05
1.67303e-05
4.51726e-10
1.67255e-05
-2.05982e-08
1.67238e-05
-1.58216e-09
1.6726e-05
1.89963e-08
1.67238e-05
1.88375e-08
1.67183e-05
1.26853e-08
1.67139e-05
1.88878e-08
1.67118e-05
2.888e-08
1.67121e-05
4.76674e-08
1.67135e-05
6.17251e-08
1.67138e-05
6.56171e-08
1.67136e-05
6.14035e-08
1.67148e-05
6.20609e-08
1.67168e-05
6.42263e-08
1.67181e-05
6.38187e-08
1.67186e-05
6.01359e-08
1.67195e-05
5.77823e-08
1.67211e-05
5.65439e-08
1.67233e-05
5.57792e-08
5.36906e-08
1.67252e-05
1.75299e-05
9.53017e-10
1.75258e-05
-1.65507e-08
1.75235e-05
7.265e-10
1.75249e-05
1.76252e-08
1.75233e-05
2.04594e-08
1.75182e-05
1.76894e-08
1.75137e-05
2.34589e-08
1.75114e-05
3.11657e-08
1.75118e-05
4.72579e-08
1.75133e-05
6.02086e-08
1.75138e-05
6.51518e-08
1.75136e-05
6.16148e-08
1.75145e-05
6.11703e-08
1.75163e-05
6.23612e-08
1.75179e-05
6.22765e-08
1.75189e-05
5.91519e-08
1.75199e-05
5.67561e-08
1.75215e-05
5.49254e-08
1.75236e-05
5.3683e-08
5.15821e-08
1.75257e-05
1.83677e-05
1.61098e-09
1.83643e-05
-1.31294e-08
1.83617e-05
3.33356e-09
1.8362e-05
1.72742e-08
1.83607e-05
2.17314e-08
1.83565e-05
2.19352e-08
1.83519e-05
2.80032e-08
1.83494e-05
3.37618e-08
1.83496e-05
4.70383e-08
1.83511e-05
5.86411e-08
1.83519e-05
6.43613e-08
1.83518e-05
6.17565e-08
1.83524e-05
6.05292e-08
1.83542e-05
6.06318e-08
1.83558e-05
6.06207e-08
1.83571e-05
5.782e-08
1.83585e-05
5.54449e-08
1.83601e-05
5.32809e-08
1.83622e-05
5.16157e-08
4.93979e-08
1.83644e-05
1.92456e-05
2.38115e-09
1.92426e-05
-1.01526e-08
1.924e-05
5.95824e-09
1.92394e-05