/*--------------------------------*- C++ -*----------------------------------*\
| =========                 |                                                 |
| \\      /  F ield         | OpenFOAM: The Open Source CFD Toolbox           |
|  \\    /   O peration     | Version:  2506                                  |
|   \\  /    A nd           | Website:  www.openfoam.com                      |
|    \\/     M anipulation  |                                                 |
\*---------------------------------------------------------------------------*/
FoamFile
{
    version     2.0;
    format      ascii;
    arch        "LSB;label=32;scalar=64";
    class       volVectorField;
    location    "2.35";
    object      U;
}
// * * * * * * * * * * * * * * * * * * * * * * * * * * * * * * * * * * * * * //

dimensions      [0 1 -1 0 0 0 0];

internalField   nonuniform List<vector> 
9600
(
(0.842764 0.00032328 0)
(1.13617 -0.0049867 0)
(0.893467 0.00361588 0)
(1.1823 0.00829455 0)
(0.787896 -0.000504405 0)
(1.09762 -0.00480853 0)
(0.913188 -0.00948603 0)
(1.11255 -0.00829514 0)
(0.896603 0.00746316 0)
(1.13856 0.00202454 0)
(0.842711 0.0130962 0)
(1.12032 0.00940792 0)
(0.827082 -0.000582843 0)
(1.09008 -0.000731574 0)
(0.864257 -0.00675955 0)
(1.07717 -0.00377351 0)
(0.8777 -0.00743278 0)
(1.08807 -0.00655906 0)
(0.870375 -0.0052726 0)
(1.0988 -0.0127963 0)
(0.853026 0.000395531 0)
(1.12488 -0.00516731 0)
(0.900172 0.00298838 0)
(1.16933 0.00929402 0)
(0.81557 0.000175798 0)
(1.08041 -0.00590052 0)
(0.926674 -0.00998627 0)
(1.09993 -0.00788076 0)
(0.909994 0.00688712 0)
(1.11938 0.00310129 0)
(0.867112 0.013056 0)
(1.08503 0.00999308 0)
(0.87811 -0.000139698 0)
(1.04306 -0.00136221 0)
(0.923265 -0.00650358 0)
(1.02111 -0.00418367 0)
(0.951123 -0.00747769 0)
(1.01132 -0.00695764 0)
(0.971466 -0.00449229 0)
(0.988128 -0.0139639 0)
(0.872654 0.000470363 0)
(1.10427 -0.0053782 0)
(0.91445 0.00249317 0)
(1.14413 0.0102202 0)
(0.859306 0.00074897 0)
(1.05419 -0.0067915 0)
(0.948072 -0.0103171 0)
(1.07671 -0.00757436 0)
(0.935714 0.0064823 0)
(1.08655 0.00388977 0)
(0.90811 0.0133493 0)
(1.04006 0.00999092 0)
(0.933665 0.000379178 0)
(1.00163 -0.00208939 0)
(0.964837 -0.00613855 0)
(0.990315 -0.00479753 0)
(0.97978 -0.00729021 0)
(0.990074 -0.00737252 0)
(0.987562 -0.00446272 0)
(0.984169 -0.0114646 0)
(0.89876 0.000562337 0)
(1.07799 -0.00555014 0)
(0.93336 0.00214142 0)
(1.11165 0.0107117 0)
(0.906827 0.00139554 0)
(1.02756 -0.00742703 0)
(0.969954 -0.0106316 0)
(1.05037 -0.0074193 0)
(0.962896 0.00636285 0)
(1.0529 0.00432008 0)
(0.945775 0.0138927 0)
(1.00958 0.00966366 0)
(0.968902 0.000908325 0)
(0.98603 -0.00250865 0)
(0.980521 -0.00602232 0)
(0.986289 -0.00508887 0)
(0.98575 -0.00728366 0)
(0.99041 -0.007644 0)
(0.989146 -0.00415101 0)
(0.987716 -0.0102788 0)
(0.926933 0.000674956 0)
(1.05134 -0.00569198 0)
(0.952306 0.00182735 0)
(1.07846 0.0109186 0)
(0.948008 0.00206731 0)
(1.00806 -0.00787641 0)
(0.985757 -0.0109356 0)
(1.02853 -0.00733932 0)
(0.982281 0.0063594 0)
(1.0279 0.00458294 0)
(0.96995 0.0143942 0)
(0.997314 0.00940338 0)
(0.986319 0.00124014 0)
(0.986357 -0.00266678 0)
(0.986482 -0.00600222 0)
(0.988994 -0.00530082 0)
(0.989549 -0.00725071 0)
(0.991571 -0.00782557 0)
(0.99197 -0.00391667 0)
(0.988842 -0.00937683 0)
(0.952668 0.000791436 0)
(1.02914 -0.00579669 0)
(0.967493 0.00157794 0)
(1.05033 0.0109329 0)
(0.977769 0.00264947 0)
(0.998496 -0.00812193 0)
(0.993902 -0.0111829 0)
(1.0139 -0.0073042 0)
(0.991951 0.006396 0)
(1.01333 0.00479197 0)
(0.982146 0.0147102 0)
(0.995712 0.00921987 0)
(0.995111 0.00139661 0)
(0.991155 -0.00267796 0)
(0.990911 -0.00595209 0)
(0.991662 -0.00550395 0)
(0.99278 -0.00716351 0)
(0.992555 -0.00792368 0)
(0.993604 -0.00380475 0)
(0.989954 -0.00841479 0)
(0.972884 0.000892286 0)
(1.01386 -0.0058406 0)
(0.977439 0.00139775 0)
(1.03005 0.0107957 0)
(0.996165 0.00308529 0)
(0.996879 -0.00817485 0)
(0.996789 -0.0113476 0)
(1.00494 -0.00729196 0)
(0.994854 0.0064384 0)
(1.00618 0.00495359 0)
(0.987864 0.0148407 0)
(0.997986 0.00903999 0)
(1.00066 0.00148266 0)
(0.995995 -0.00262872 0)
(0.99494 -0.00585244 0)
(0.994099 -0.00564313 0)
(0.994827 -0.00706605 0)
(0.993554 -0.00793632 0)
(0.993986 -0.00374842 0)
(0.990625 -0.00741713 0)
(0.98663 0.0009653 0)
(1.00522 -0.00581813 0)
(0.982918 0.00126319 0)
(1.01724 0.0105589 0)
(1.006 0.00337121 0)
(0.999342 -0.00809083 0)
(0.997528 -0.0114119 0)
(0.999204 -0.00728126 0)
(0.994544 0.00645182 0)
(1.00285 0.00505219 0)
(0.991142 0.014832 0)
(1.00099 0.00884207 0)
(1.00471 0.00154129 0)
(0.999952 -0.00255952 0)
(0.998292 -0.00570324 0)
(0.99637 -0.00569723 0)
(0.996184 -0.0069706 0)
(0.994277 -0.00784491 0)
(0.993865 -0.00368874 0)
(0.990653 -0.00643763 0)
(0.994758 0.00100745 0)
(1.00126 -0.00574301 0)
(0.985768 0.00116289 0)
(1.00981 0.0102673 0)
(1.01044 0.00353029 0)
(1.00273 -0.00793142 0)
(0.997956 -0.011367 0)
(0.99522 -0.00725471 0)
(0.993269 0.00642429 0)
(1.00097 0.00508166 0)
(0.993571 0.0147188 0)
(1.00361 0.00863036 0)
(1.0076 0.00158241 0)
(1.00288 -0.00246607 0)
(1.00084 -0.00551982 0)
(0.998266 -0.0056825 0)
(0.99724 -0.00685063 0)
(0.994758 -0.00764433 0)
(0.99359 -0.00362288 0)
(0.990341 -0.00549495 0)
(0.998969 0.00102387 0)
(0.999807 -0.00563593 0)
(0.98759 0.0010945 0)
(1.00557 0.00994949 0)
(1.0119 0.00359543 0)
(1.00546 -0.00774198 0)
(0.998571 -0.0112237 0)
(0.992458 -0.00720055 0)
(0.992055 0.0063637 0)
(0.999549 0.00504575 0)
(0.995401 0.0145191 0)
(1.00543 0.00841387 0)
(1.00942 0.00161137 0)
(1.0048 -0.0023411 0)
(1.00261 -0.00533421 0)
(0.999675 -0.00560164 0)
(0.998076 -0.0066987 0)
(0.995132 -0.007351 0)
(0.993317 -0.00355248 0)
(0.989984 -0.00458917 0)
(1.00091 0.0010234 0)
(0.999367 -0.00551556 0)
(0.989175 0.00105324 0)
(1.00304 0.00962587 0)
(1.01188 0.00359824 0)
(1.00713 -0.00754861 0)
(0.999262 -0.0110071 0)
(0.990709 -0.00711623 0)
(0.991258 0.00628121 0)
(0.998401 0.00495905 0)
(0.996611 0.0142471 0)
(1.00645 0.00820173 0)
(1.01036 0.00162366 0)
(1.00588 -0.00219051 0)
(1.00371 -0.00516719 0)
(1.00061 -0.00545223 0)
(0.998688 -0.0065371 0)
(0.995455 -0.00699078 0)
(0.993139 -0.00344779 0)
(0.98975 -0.00373268 0)
(1.00173 0.00101384 0)
(0.999222 -0.00539453 0)
(0.990657 0.00103327 0)
(1.00147 0.00930952 0)
(1.01127 0.00356246 0)
(1.00793 -0.00736281 0)
(0.999849 -0.0107428 0)
(0.98975 -0.00700611 0)
(0.990904 0.00618664 0)
(0.997585 0.0048409 0)
(0.997308 0.0139196 0)
(1.00683 0.00799859 0)
(1.01067 0.00161765 0)
(1.00636 -0.00201945 0)
(1.0043 -0.00501747 0)
(1.00116 -0.00525495 0)
(0.999095 -0.00637972 0)
(0.995731 -0.00658285 0)
(0.993083 -0.00328339 0)
(0.989694 -0.00295143 0)
(1.00207 0.000999928 0)
(0.999131 -0.00527812 0)
(0.991926 0.00102893 0)
(1.00048 0.0090053 0)
(1.01053 0.00350438 0)
(1.00815 -0.00718703 0)
(1.00026 -0.0104504 0)
(0.989332 -0.00687613 0)
(0.990876 0.00608489 0)
(0.997123 0.00470903 0)
(0.997678 0.0135493 0)
(1.00683 0.00781215 0)
(1.01064 0.00158744 0)
(1.00647 -0.00182354 0)
(1.00456 -0.00488878 0)
(1.00143 -0.00502783 0)
(0.999336 -0.00621268 0)
(0.995958 -0.00615867 0)
(0.993132 -0.00305113 0)
(0.989807 -0.00226508 0)
(1.00222 0.000984 0)
(0.999041 -0.00516663 0)
(0.992899 0.00103473 0)
(0.999903 0.00871166 0)
(1.00988 0.00343455 0)
(1.00806 -0.00701931 0)
(1.00051 -0.0101426 0)
(0.989236 -0.00672959 0)
(0.99103 0.00597589 0)
(0.996943 0.00457555 0)
(0.997891 0.0131459 0)
(1.00664 0.00764541 0)
(1.01046 0.0015321 0)
(1.00639 -0.0016019 0)
(1.00464 -0.00478281 0)
(1.00152 -0.00477902 0)
(0.99946 -0.00602102 0)
(0.996145 -0.00575147 0)
(0.993256 -0.00274914 0)
(0.990049 -0.00165846 0)
(1.00229 0.000967117 0)
(0.998947 -0.00505826 0)
(0.993594 0.00104593 0)
(0.999597 0.00842401 0)
(1.0094 0.00335895 0)
(1.00783 -0.00685525 0)
(1.00065 -0.00982775 0)
(0.989315 -0.00657021 0)
(0.991266 0.00585744 0)
(0.996943 0.00444731 0)
(0.99805 0.0127137 0)
(1.00638 0.00749992 0)
(1.01024 0.00145111 0)
(1.00622 -0.0013599 0)
(1.00463 -0.00468602 0)
(1.00152 -0.00452269 0)
(0.999514 -0.00579368 0)
(0.996308 -0.00538004 0)
(0.993435 -0.00239133 0)
(0.990375 -0.00110919 0)
(1.00233 0.000949555 0)
(0.998854 -0.00495058 0)
(0.994083 0.00105889 0)
(0.999463 0.00813792 0)
(1.00906 0.00328069 0)
(1.00755 -0.00669057 0)
(1.00072 -0.00951044 0)
(0.989484 -0.00639964 0)
(0.991532 0.005726 0)
(0.997042 0.00432954 0)
(0.998203 0.0122544 0)
(1.0061 0.00737346 0)
(1.01003 0.00134904 0)
(1.00603 -0.00110447 0)
(1.00459 -0.00458911 0)
(1.00149 -0.00427475 0)
(0.999531 -0.00550603 0)
(0.996467 -0.005049 0)
(0.993654 -0.00200884 0)
(0.99075 -0.000609118 0)
(1.00236 0.000931365 0)
(0.998774 -0.00484192 0)
(0.994442 0.00107113 0)
(0.999423 0.00785056 0)
(1.00881 0.0032007 0)
(1.00728 -0.00652126 0)
(1.00075 -0.00919465 0)
(0.989707 -0.00621555 0)
(0.99181 0.00557815 0)
(0.997192 0.00422285 0)
(0.99836 0.011771 0)
(1.00582 0.0072653 0)
(1.00984 0.00122904 0)
(1.00584 -0.000838235 0)
(1.00452 -0.00448085 0)
(1.00145 -0.00405115 0)
(0.99953 -0.00515184 0)
(0.996632 -0.00475409 0)
(0.993906 -0.00161668 0)
(0.99115 -0.000145132 0)
(1.00237 0.000912517 0)
(0.99872 -0.00473114 0)
(0.994725 0.00108116 0)
(0.999428 0.00756101 0)
(1.00859 0.00311871 0)
(1.00702 -0.00634497 0)
(1.00078 -0.00888307 0)
(0.989972 -0.00601788 0)
(0.99209 0.00541445 0)
(0.997366 0.00412778 0)
(0.998511 0.0112639 0)
(1.00553 0.00717641 0)
(1.00963 0.00109204 0)
(1.00565 -0.000570895 0)
(1.00442 -0.00434339 0)
(1.00142 -0.00386075 0)
(0.999519 -0.00474716 0)
(0.996811 -0.00447676 0)
(0.994185 -0.00124079 0)
(0.991559 0.000314491 0)
(1.00235 0.000892601 0)
(0.998702 -0.00461704 0)
(0.99496 0.00108823 0)
(0.999461 0.00726956 0)
(1.00836 0.00303294 0)
(1.00678 -0.00615898 0)
(1.00079 -0.00857777 0)
(0.990277 -0.00580792 0)
(0.992366 0.00523223 0)
(0.997556 0.0040476 0)
(0.998643 0.0107363 0)
(1.00523 0.00709867 0)
(1.0094 0.000951048 0)
(1.00547 -0.000320467 0)
(1.00431 -0.00416079 0)
(1.00141 -0.00371361 0)
(0.999502 -0.00429667 0)
(0.997004 -0.00420006 0)
(0.994487 -0.000910669 0)
(0.991969 0.000799695 0)
(1.0023 0.000871405 0)
(0.998725 -0.00449873 0)
(0.995159 0.00109128 0)
(0.999516 0.00697797 0)
(1.0081 0.00294116 0)
(1.00655 -0.00596058 0)
(1.00079 -0.00828085 0)
(0.990623 -0.00558334 0)
(0.992629 0.00503133 0)
(0.997758 0.00397879 0)
(0.998752 0.0101953 0)
(1.00493 0.00702411 0)
(1.00915 0.000819011 0)
(1.00528 -9.61265e-05 0)
(1.00416 -0.00392674 0)
(1.00142 -0.00360566 0)
(0.99948 -0.00381625 0)
(0.997205 -0.00390467 0)
(0.994811 -0.000643054 0)
(0.992377 0.00128785 0)
(1.00221 0.000848663 0)
(0.998789 -0.004375 0)
(0.995326 0.00108833 0)
(0.999596 0.00668868 0)
(1.00781 0.0028423 0)
(1.00635 -0.00574946 0)
(1.00078 -0.00799463 0)
(0.991002 -0.00534338 0)
(0.992877 0.00481706 0)
(0.99797 0.00391935 0)
(0.998837 0.00964441 0)
(1.00463 0.00694868 0)
(1.00887 0.000694217 0)
(1.00511 9.13773e-05 0)
(1.00399 -0.00364384 0)
(1.00144 -0.00351981 0)
(0.999457 -0.00333813 0)
(0.997409 -0.0035715 0)
(0.995151 -0.000443375 0)
(0.992785 0.00175417 0)
(1.00208 0.000823967 0)
(0.998888 -0.00424532 0)
(0.995466 0.00107899 0)
(0.999697 0.00640366 0)
(1.00749 0.00273427 0)
(1.00616 -0.00552439 0)
(1.00075 -0.00772162 0)
(0.991407 -0.00508787 0)
(0.993109 0.00458791 0)
(0.998192 0.0038684 0)
(0.998908 0.00909205 0)
(1.00433 0.00686755 0)
(1.00857 0.000587099 0)
(1.00496 0.000244748 0)
(1.00378 -0.00331203 0)
(1.00149 -0.0034459 0)
(0.999438 -0.00288553 0)
(0.997609 -0.00319045 0)
(0.995506 -0.000299168 0)
(0.993194 0.0021818 0)
(1.00193 0.00079709 0)
(0.99901 -0.00410939 0)
(0.995587 0.00106052 0)
(0.999811 0.00612635 0)
(1.00715 0.00261308 0)
(1.00598 -0.00528348 0)
(1.00071 -0.00746071 0)
(0.991826 -0.00482203 0)
(0.993328 0.0043502 0)
(0.998417 0.00381907 0)
(0.998971 0.00854928 0)
(1.00404 0.00676738 0)
(1.00825 0.000512538 0)
(1.00481 0.000357342 0)
(1.00356 -0.00294041 0)
(1.00154 -0.00336577 0)
(0.999434 -0.0024684 0)
(0.997799 -0.00275469 0)
(0.995871 -0.000195189 0)
(0.993611 0.00254812 0)
(1.00177 0.000768074 0)
(0.999142 -0.00396659 0)
(0.995702 0.00103152 0)
(0.999926 0.00585811 0)
(1.00681 0.00247976 0)
(1.0058 -0.00503112 0)
(1.00066 -0.00720685 0)
(0.992248 -0.00455044 0)
(0.993541 0.00410934 0)
(0.998636 0.00376489 0)
(0.999033 0.00802445 0)
(1.00375 0.00664584 0)
(1.00793 0.000468717 0)
(1.00468 0.000429082 0)
(1.00333 -0.00254343 0)
(1.0016 -0.00326767 0)
(0.999453 -0.00208616 0)
(0.997975 -0.00228197 0)
(0.996242 -0.000109209 0)
(0.99404 0.00283868 0)
(1.00161 0.000736519 0)
(0.999268 -0.00381561 0)
(0.995822 0.000992783 0)
(1.00003 0.00559961 0)
(1.00648 0.00233559 0)
(1.00562 -0.00476441 0)
(1.00062 -0.00696502 0)
(0.992664 -0.00427395 0)
(0.993755 0.00386904 0)
(0.998842 0.00369564 0)
(0.999103 0.00752319 0)
(1.00346 0.00650529 0)
(1.0076 0.000453382 0)
(1.00457 0.000471754 0)
(1.0031 -0.0021255 0)
(1.00166 -0.00313976 0)
(0.999502 -0.00174828 0)
(0.998136 -0.00178812 0)
(0.996615 -2.29686e-05 0)
(0.994486 0.00303997 0)
(1.00146 0.000701916 0)
(0.99938 -0.00365487 0)
(0.995958 0.000938939 0)
(1.00012 0.0053542 0)
(1.00615 0.0021794 0)
(1.00542 -0.00448519 0)
(1.00059 -0.00673059 0)
(0.993067 -0.00399788 0)
(0.993975 0.00364136 0)
(0.99903 0.00360709 0)
(0.999182 0.00704511 0)
(1.00317 0.00634613 0)
(1.00728 0.000462039 0)
(1.00446 0.000488433 0)
(1.00287 -0.00169431 0)
(1.00171 -0.00297836 0)
(0.999587 -0.00146587 0)
(0.998284 -0.00127807 0)
(0.996985 8.22918e-05 0)
(0.994955 0.00314255 0)
(1.00134 0.000664773 0)
(0.99947 -0.00348637 0)
(0.996117 0.000871341 0)
(1.00018 0.00512023 0)
(1.00584 0.00200991 0)
(1.00522 -0.00420069 0)
(1.00057 -0.0064943 0)
(0.993455 -0.00373594 0)
(0.994205 0.00342956 0)
(0.999196 0.00350096 0)
(0.999273 0.00658528 0)
(1.00288 0.00617995 0)
(1.00696 0.000493689 0)
(1.00436 0.00048612 0)
(1.00265 -0.00126858 0)
(1.00175 -0.00277636 0)
(0.99971 -0.00123708 0)
(0.998423 -0.000764978 0)
(0.997339 0.000226764 0)
(0.995452 0.00313593 0)
(1.00124 0.000625156 0)
(0.999539 -0.0033091 0)
(0.996297 0.000792337 0)
(1.00023 0.00489515 0)
(1.00555 0.00183357 0)
(1.00499 -0.00391288 0)
(1.00057 -0.00625905 0)
(0.993832 -0.00348759 0)
(0.994445 0.00324035 0)
(0.999343 0.00337971 0)
(0.999376 0.0061463 0)
(1.00259 0.00600673 0)
(1.00664 0.000545293 0)
(1.00427 0.000468042 0)
(1.00243 -0.000847579 0)
(1.00177 -0.00252488 0)
(0.999869 -0.00105307 0)
(0.998562 -0.000282465 0)
(0.997667 0.000432708 0)
(0.995972 0.00303867 0)
(1.00116 0.00058282 0)
(0.999589 -0.00312179 0)
(0.996494 0.000700241 0)
(1.00026 0.00468154 0)
(1.00526 0.00165236 0)
(1.00476 -0.00362897 0)
(1.00058 -0.00601326 0)
(0.9942 -0.00326159 0)
(0.994693 0.00307577 0)
(0.999475 0.00324303 0)
(0.999487 0.0057238 0)
(1.0023 0.00582659 0)
(1.00633 0.000615013 0)
(1.00419 0.000433991 0)
(1.00223 -0.000434545 0)
(1.00177 -0.00222255 0)
(1.00006 -0.000905952 0)
(0.998709 0.000148461 0)
(0.997959 0.000711912 0)
(0.996503 0.00289687 0)
(1.00109 0.000537597 0)
(0.999625 -0.00292639 0)
(0.996701 0.000597843 0)
(1.00028 0.00447617 0)
(1.00499 0.0014719 0)
(1.00452 -0.00335446 0)
(1.00059 -0.00575025 0)
(0.994562 -0.00306959 0)
(0.994947 0.0029248 0)
(0.999594 0.00309674 0)
(0.999607 0.00530926 0)
(1.00203 0.00564698 0)
(1.00601 0.000707485 0)
(1.00413 0.000389699 0)
(1.00204 -4.88596e-05 0)
(1.00174 -0.00186699 0)
(1.00026 -0.00078349 0)
(0.998876 0.000524623 0)
(0.998213 0.00106294 0)
(0.997022 0.00277781 0)
(1.00102 0.000490004 0)
(0.999652 -0.00272438 0)
(0.996912 0.00048738 0)
(1.00031 0.00427534 0)
(1.00472 0.00129855 0)
(1.00428 -0.00309887 0)
(1.0006 -0.00546585 0)
(0.99492 -0.00289886 0)
(0.995203 0.00278835 0)
(0.999703 0.00295563 0)
(0.999733 0.00490581 0)
(1.00176 0.00546621 0)
(1.00568 0.000822292 0)
(1.00408 0.000345175 0)
(1.00188 0.000308259 0)
(1.00168 -0.0014713 0)
(1.00048 -0.000662261 0)
(0.999072 0.000830933 0)
(0.998432 0.00144686 0)
(0.997499 0.00274154 0)
(1.00097 0.000440284 0)
(0.999673 -0.00251698 0)
(0.997121 0.000370178 0)
(1.00033 0.00407603 0)
(1.00447 0.00113962 0)
(1.00403 -0.00287238 0)
(1.0006 -0.00515627 0)
(0.995275 -0.00275203 0)
(0.995459 0.00265844 0)
(0.999804 0.00282736 0)
(0.999864 0.00451837 0)
(1.00151 0.00528301 0)
(1.00535 0.000959863 0)
(1.00404 0.000301719 0)
(1.00174 0.000630846 0)
(1.00159 -0.001041 0)
(1.00069 -0.000528415 0)
(0.9993 0.00105981 0)
(0.998632 0.00180756 0)
(0.997918 0.00280553 0)
(1.00091 0.000389206 0)
(0.999688 -0.00230697 0)
(0.997326 0.000253359 0)
(1.00034 0.00387057 0)
(1.00422 0.00100034 0)
(1.00379 -0.00268181 0)
(1.0006 -0.00483032 0)
(0.995624 -0.00262011 0)
(0.995716 0.00252126 0)
(0.999895 0.0027062 0)
(0.999999 0.0041471 0)
(1.00129 0.00509715 0)
(1.00501 0.00111853 0)
(1.00402 0.00026421 0)
(1.00163 0.000905356 0)
(1.00148 -0.000588294 0)
(1.00088 -0.000379683 0)
(0.999556 0.0012315 0)
(0.998827 0.00212006 0)
(0.998274 0.00294697 0)
(1.00086 0.000337382 0)
(0.9997 -0.00209829 0)
(0.997525 0.000142424 0)
(1.00036 0.00365178 0)
(1.00397 0.000888376 0)
(1.00356 -0.00252159 0)
(1.0006 -0.00449332 0)
(0.995965 -0.00249577 0)
(0.995971 0.00237164 0)
(0.999976 0.0025892 0)
(1.00014 0.00379585 0)
(1.00108 0.00490756 0)
(1.00467 0.00129606 0)
(1.004 0.000243627 0)
(1.00155 0.00112823 0)
(1.00135 -0.000132383 0)
(1.00105 -0.00021266 0)
(0.999837 0.00135686 0)
(0.999032 0.00238239 0)
(0.998575 0.00312124 0)
(1.00081 0.000286701 0)
(0.999707 -0.00189372 0)
(0.997716 4.01062e-05 0)
(1.00037 0.00341365 0)
(1.00372 0.000805338 0)
(1.00333 -0.00238511 0)
(1.0006 -0.00415388 0)
(0.996295 -0.00236515 0)
(0.996225 0.00221723 0)
(1.00005 0.00248013 0)
(1.00027 0.00346903 0)
(1.0009 0.00471953 0)
(1.00432 0.0014932 0)
(1.00398 0.000249647 0)
(1.00152 0.00129554 0)
(1.00121 0.000323004 0)
(1.00119 -1.5354e-05 0)
(1.00014 0.00143963 0)
(0.999253 0.00260087 0)
(0.998834 0.00329524 0)
(1.00076 0.000236244 0)
(0.999711 -0.00169669 0)
(0.997899 -4.23528e-05 0)
(1.00039 0.00314845 0)
(1.00348 0.000746802 0)
(1.0031 -0.00226275 0)
(1.00059 -0.00383213 0)
(0.996614 -0.00222328 0)
(0.996475 0.00206268 0)
(1.00011 0.00237664 0)
(1.00041 0.00316651 0)
(1.00075 0.00453105 0)
(1.00396 0.00170137 0)
(1.00396 0.000276266 0)
(1.00152 0.00140658 0)
(1.00106 0.000758732 0)
(1.00129 0.000216702 0)
(1.00045 0.00148412 0)
(0.999497 0.00277478 0)
(0.999061 0.00346552 0)
(1.00071 0.000188064 0)
(0.999711 -0.00151264 0)
(0.998071 -9.93269e-05 0)
(1.0004 0.00285756 0)
(1.00324 0.000707682 0)
(1.00288 -0.00213908 0)
(1.00058 -0.00352858 0)
(0.996919 -0.00207461 0)
(0.996722 0.00191338 0)
(1.00017 0.00228057 0)
(1.00055 0.00289421 0)
(1.00063 0.00433771 0)
(1.0036 0.00191102 0)
(1.00392 0.000321121 0)
(1.00156 0.00146442 0)
(1.00092 0.00116378 0)
(1.00135 0.000486055 0)
(1.00076 0.00149809 0)
(0.99977 0.0028874 0)
(0.99927 0.00362877 0)
(1.00067 0.000143669 0)
(0.999709 -0.00134441 0)
(0.998231 -0.000131215 0)
(1.00042 0.00255034 0)
(1.003 0.000670958 0)
(1.00267 -0.00200384 0)
(1.00058 -0.00324048 0)
(0.997212 -0.00190644 0)
(0.996965 0.00178438 0)
(1.00022 0.00219158 0)
(1.00068 0.00265113 0)
(1.00054 0.00414033 0)
(1.00324 0.00210672 0)
(1.00386 0.000394756 0)
(1.00164 0.00146741 0)
(1.0008 0.00152255 0)
(1.00135 0.000798292 0)
(1.00106 0.00151009 0)
(1.00008 0.00293282 0)
(0.999475 0.0037732 0)
(1.00062 0.000103603 0)
(0.999705 -0.001198 0)
(0.998378 -0.000137845 0)
(1.00043 0.00223341 0)
(1.00278 0.000626104 0)
(1.00246 -0.00185591 0)
(1.00057 -0.00297219 0)
(0.997493 -0.00172343 0)
(0.9972 0.00168257 0)
(1.00026 0.00211734 0)
(1.00081 0.00243147 0)
(1.00048 0.00392503 0)
(1.00289 0.00228218 0)
(1.00378 0.000496134 0)
(1.00175 0.00142995 0)
(1.00071 0.0018133 0)
(1.00131 0.00114348 0)
(1.00133 0.00154907 0)
(1.00042 0.00291507 0)
(0.999693 0.00387791 0)
(1.00057 6.86374e-05 0)
(0.999701 -0.00107114 0)
(0.998511 -0.000125768 0)
(1.00045 0.00192062 0)
(1.00256 0.0005645 0)
(1.00225 -0.00170705 0)
(1.00056 -0.00271078 0)
(0.997764 -0.00153315 0)
(0.997429 0.00160972 0)
(1.00029 0.00205821 0)
(1.00093 0.00223262 0)
(1.00045 0.00368831 0)
(1.00256 0.00243346 0)
(1.00368 0.000627478 0)
(1.00188 0.00137271 0)
(1.00067 0.00203058 0)
(1.00124 0.00149617 0)
(1.00155 0.00163067 0)
(1.00077 0.00285214 0)
(0.99994 0.00392777 0)
(1.00053 3.84684e-05 0)
(0.999698 -0.000968914 0)
(0.99863 -9.49243e-05 0)
(1.00046 0.0016244 0)
(1.00236 0.000485795 0)
(1.00205 -0.00155647 0)
(1.00056 -0.00245688 0)
(0.998026 -0.00134465 0)
(0.997651 0.00156139 0)
(1.00031 0.00200919 0)
(1.00105 0.00205239 0)
(1.00045 0.00344441 0)
(1.00224 0.00255726 0)
(1.00354 0.000787043 0)
(1.00203 0.00131092 0)
(1.00069 0.00217196 0)
(1.00116 0.00183302 0)
(1.00171 0.00176084 0)
(1.00114 0.00277114 0)
(1.00023 0.00391326 0)
(1.00049 1.41577e-05 0)
(0.999697 -0.000893205 0)
(0.998736 -5.49518e-05 0)
(1.00046 0.00135278 0)
(1.00218 0.000388412 0)
(1.00186 -0.00140892 0)
(1.00056 -0.00221835 0)
(0.998281 -0.0011626 0)
(0.997867 0.00154206 0)
(1.00032 0.00198707 0)
(1.00115 0.00189773 0)
(1.00048 0.00319306 0)
(1.00194 0.00265075 0)
(1.00337 0.000970891 0)
(1.00218 0.00126239 0)
(1.00076 0.00224573 0)
(1.00108 0.00213737 0)
(1.00182 0.0019336 0)
(1.00148 0.00269891 0)
(1.00055 0.00383664 0)
(1.00045 -3.07077e-06 0)
(0.999698 -0.000832914 0)
(0.998832 -1.46338e-05 0)
(1.00046 0.00111286 0)
(1.00201 0.000269888 0)
(1.00169 -0.00126846 0)
(1.00056 -0.00199365 0)
(0.998531 -0.000989828 0)
(0.99808 0.00155357 0)
(1.00032 0.00199684 0)
(1.00123 0.00177188 0)
(1.00053 0.00294347 0)
(1.00169 0.00271147 0)
(1.00318 0.0011715 0)
(1.00233 0.00123565 0)
(1.00088 0.00225624 0)
(1.00102 0.00239003 0)
(1.00187 0.00213074 0)
(1.00179 0.00265087 0)
(1.00091 0.00370829 0)
(1.00041 -1.90645e-05 0)
(0.999703 -0.000784998 0)
(0.998919 2.2437e-05 0)
(1.00045 0.000919984 0)
(1.00185 0.000133179 0)
(1.00153 -0.0011326 0)
(1.00056 -0.00179726 0)
(0.998777 -0.000795862 0)
(0.998292 0.00158974 0)
(1.00031 0.00202248 0)
(1.00129 0.00168364 0)
(1.00061 0.00270786 0)
(1.00147 0.00274261 0)
(1.00298 0.00138325 0)
(1.00244 0.00125017 0)
(1.00104 0.00222944 0)
(1.00098 0.00259061 0)
(1.00187 0.0023477 0)
(1.00205 0.00264722 0)
(1.00128 0.00356191 0)
(1.00037 -2.49748e-05 0)
(0.999711 -0.000757639 0)
(0.999001 6.10344e-05 0)
(1.00044 0.000756872 0)
(1.00171 2.45625e-05 0)
(1.00139 -0.000989275 0)
(1.00056 -0.00156452 0)
(0.999021 -0.000658324 0)
(0.998499 0.00156664 0)
(1.00029 0.00202392 0)
(1.00133 0.00162349 0)
(1.00071 0.00247448 0)
(1.00131 0.00272683 0)
(1.00276 0.00158624 0)
(1.00253 0.00130348 0)
(1.00124 0.00217537 0)
(1.00099 0.00272074 0)
(1.00185 0.00255758 0)
(1.00224 0.00268175 0)
(1.00164 0.00341613 0)
(1.00034 -2.53939e-05 0)
(0.999724 -0.000743608 0)
(0.999078 9.83164e-05 0)
(1.00041 0.000628503 0)
(1.00159 -3.05965e-05 0)
(1.00126 -0.000832189 0)
(1.00056 -0.00130728 0)
(0.99925 -0.000593699 0)
(0.998712 0.00145889 0)
(1.00027 0.00199263 0)
(1.00135 0.00157677 0)
(1.00082 0.00225738 0)
(1.00118 0.00266927 0)
(1.00255 0.00176055 0)
(1.00258 0.00137996 0)
(1.00145 0.00210672 0)
(1.00105 0.00277693 0)
(1.00181 0.00273878 0)
(1.00236 0.00274772 0)
(1.00196 0.00328928 0)
(1.00031 -2.70223e-05 0)
(0.999743 -0.000728358 0)
(0.999154 0.000121747 0)
(1.00039 0.000553458 0)
(1.00148 -7.54894e-05 0)
(1.00116 -0.000692861 0)
(1.00056 -0.00107231 0)
(0.999463 -0.000512518 0)
(0.998926 0.00133073 0)
(1.00026 0.0019496 0)
(1.00135 0.00156024 0)
(1.00093 0.00208204 0)
(1.00111 0.00260007 0)
(1.00235 0.00191508 0)
(1.0026 0.00148393 0)
(1.00167 0.00205636 0)
(1.00117 0.0027862 0)
(1.00179 0.00288567 0)
(1.00244 0.00284376 0)
(1.00224 0.00320546 0)
(1.00028 -2.27481e-05 0)
(0.999765 -0.000714105 0)
(0.99923 0.000130999 0)
(1.00037 0.000505033 0)
(1.00139 -0.00011381 0)
(1.00107 -0.000581077 0)
(1.00056 -0.000847555 0)
(0.999653 -0.000420526 0)
(0.999141 0.00121422 0)
(1.00027 0.00190194 0)
(1.00134 0.00156954 0)
(1.00104 0.00194359 0)
(1.00107 0.00251575 0)
(1.00217 0.00204219 0)
(1.00259 0.00160213 0)
(1.00187 0.00202325 0)
(1.00132 0.00275795 0)
(1.00179 0.00298129 0)
(1.00247 0.00294224 0)
(1.00246 0.00316459 0)
(1.00025 -1.84047e-05 0)
(0.99979 -0.000698161 0)
(0.999309 0.000127079 0)
(1.00034 0.000475208 0)
(1.0013 -0.00013195 0)
(1.00101 -0.000496605 0)
(1.00056 -0.000648291 0)
(0.999826 -0.000303731 0)
(0.999355 0.00112656 0)
(1.00029 0.00183956 0)
(1.00132 0.00157694 0)
(1.00114 0.00183329 0)
(1.00108 0.00242049 0)
(1.00202 0.00213522 0)
(1.00256 0.00172339 0)
(1.00206 0.00200557 0)
(1.0015 0.00270201 0)
(1.00182 0.00302875 0)
(1.00248 0.00302337 0)
(1.00262 0.00315697 0)
(1.00022 -1.33262e-05 0)
(0.999818 -0.000675439 0)
(0.999392 0.000109775 0)
(1.00032 0.000457154 0)
(1.00122 -0.000133181 0)
(1.00096 -0.000427026 0)
(1.00057 -0.000461631 0)
(0.999982 -0.000175569 0)
(0.999559 0.00104722 0)
(1.00033 0.00175493 0)
(1.0013 0.0015778 0)
(1.00123 0.0017496 0)
(1.00111 0.00232931 0)
(1.0019 0.00220216 0)
(1.00251 0.00184054 0)
(1.00222 0.0020056 0)
(1.0017 0.00262584 0)
(1.00189 0.00302785 0)
(1.00249 0.00307186 0)
(1.00272 0.00315505 0)
(1.0002 -8.93498e-06 0)
(0.999846 -0.000645902 0)
(0.999476 7.9055e-05 0)
(1.0003 0.000447058 0)
(1.00114 -0.000111164 0)
(1.00094 -0.000363822 0)
(1.00058 -0.000301287 0)
(1.00012 -4.45562e-05 0)
(0.999752 0.000988753 0)
(1.00038 0.0016753 0)
(1.00128 0.00158239 0)
(1.00132 0.00168471 0)
(1.00117 0.00223164 0)
(1.00181 0.00224018 0)
(1.00245 0.00194401 0)
(1.00236 0.00202161 0)
(1.00191 0.00254886 0)
(1.00199 0.0029921 0)
(1.00251 0.00309653 0)
(1.0028 0.00315255 0)
(1.00017 -4.99128e-06 0)
(0.999875 -0.000607389 0)
(0.999564 4.32134e-05 0)
(1.00028 0.000437455 0)
(1.00107 -6.75036e-05 0)
(1.00092 -0.000306529 0)
(1.00061 -0.000170939 0)
(1.00025 8.72219e-05 0)
(0.999933 0.000961088 0)
(1.00044 0.0016012 0)
(1.00127 0.00157817 0)
(1.00141 0.00163346 0)
(1.00125 0.0021312 0)
(1.00176 0.00225254 0)
(1.00239 0.0020394 0)
(1.00246 0.00205587 0)
(1.00212 0.00248462 0)
(1.00213 0.00293074 0)
(1.00254 0.00309386 0)
(1.00285 0.00313889 0)
(1.00015 -3.09028e-06 0)
(0.999901 -0.000556948 0)
(0.999652 7.72631e-06 0)
(1.00028 0.000422443 0)
(1.00101 -1.24878e-05 0)
(1.00091 -0.000246896 0)
(1.00065 -6.70065e-05 0)
(1.00037 0.000202985 0)
(1.0001 0.000952476 0)
(1.00051 0.00153379 0)
(1.00126 0.00156762 0)
(1.00148 0.00159783 0)
(1.00134 0.00204349 0)
(1.00174 0.00224184 0)
(1.00234 0.00211725 0)
(1.00253 0.00209934 0)
(1.00231 0.00242949 0)
(1.00228 0.00284802 0)
(1.00259 0.00305847 0)
(1.0029 0.00310978 0)
(1.00014 -1.76944e-06 0)
(0.999925 -0.000497713 0)
(0.999737 -2.15839e-05 0)
(1.00028 0.000398967 0)
(1.00095 4.77855e-05 0)
(1.00091 -0.000180475 0)
(1.0007 1.21341e-05 0)
(1.00048 0.000296394 0)
(1.00025 0.000954076 0)
(1.00058 0.00148413 0)
(1.00125 0.00156026 0)
(1.00154 0.00156967 0)
(1.00145 0.00196124 0)
(1.00175 0.00221002 0)
(1.0023 0.00216563 0)
(1.00259 0.00214318 0)
(1.00247 0.00238945 0)
(1.00245 0.00275977 0)
(1.00266 0.00300162 0)
(1.00294 0.00306855 0)
(1.00012 -1.28384e-06 0)
(0.999946 -0.000432329 0)
(0.999818 -4.16828e-05 0)
(1.0003 0.000366324 0)
(1.0009 0.000110831 0)
(1.0009 -0.000104648 0)
(1.00075 7.77364e-05 0)
(1.00059 0.000365642 0)
(1.0004 0.000957424 0)
(1.00066 0.00144746 0)
(1.00125 0.00155785 0)
(1.0016 0.00155204 0)
(1.00156 0.00188108 0)
(1.00179 0.00216422 0)
(1.00228 0.00219006 0)
(1.00262 0.00217805 0)
(1.00261 0.00236544 0)
(1.00261 0.00267256 0)
(1.00275 0.00292693 0)
(1.00299 0.00300974 0)
(1.00011 -1.46762e-06 0)
(0.999964 -0.000365115 0)
(0.999891 -5.12885e-05 0)
(1.00032 0.000327308 0)
(1.00085 0.000169118 0)
(1.0009 -2.23055e-05 0)
(1.0008 0.000139668 0)
(1.0007 0.000416972 0)
(1.00054 0.000958278 0)
(1.00075 0.00141498 0)
(1.00126 0.00155718 0)
(1.00164 0.0015497 0)
(1.00166 0.00181096 0)
(1.00186 0.00210327 0)
(1.00228 0.00219487 0)
(1.00266 0.00219619 0)
(1.00273 0.002346 0)
(1.00277 0.00259064 0)
(1.00286 0.00283763 0)
(1.00304 0.00293892 0)
(1.00009 -3.46973e-07 0)
(0.999979 -0.000302949 0)
(0.999955 -4.73305e-05 0)
(1.00034 0.000287929 0)
(1.00082 0.000217146 0)
(1.0009 6.74514e-05 0)
(1.00085 0.000204371 0)
(1.00081 0.000458199 0)
(1.00068 0.000953511 0)
(1.00083 0.00138614 0)
(1.00127 0.00155745 0)
(1.00168 0.00155629 0)
(1.00176 0.00175975 0)
(1.00194 0.00202952 0)
(1.0023 0.00217567 0)
(1.00269 0.00219861 0)
(1.00282 0.00232063 0)
(1.0029 0.00251739 0)
(1.00297 0.00273967 0)
(1.00309 0.00286146 0)
(1.00008 2.18369e-06 0)
(0.999991 -0.000247988 0)
(1.00001 -3.04902e-05 0)
(1.00037 0.000253998 0)
(1.00079 0.000252263 0)
(1.00089 0.000159068 0)
(1.00089 0.000279216 0)
(1.0009 0.000496599 0)
(1.00081 0.000939965 0)
(1.00092 0.001355 0)
(1.00129 0.00155638 0)
(1.0017 0.00156494 0)
(1.00184 0.00172568 0)
(1.00203 0.00195828 0)
(1.00233 0.00213224 0)
(1.00272 0.00218779 0)
(1.0029 0.0022907 0)
(1.00302 0.00245014 0)
(1.00308 0.00264009 0)
(1.00315 0.00277138 0)
(1.00007 6.40253e-06 0)
(1 -0.00020021 0)
(1.00005 -5.23852e-06 0)
(1.0004 0.000230687 0)
(1.00078 0.00027654 0)
(1.00089 0.000240904 0)
(1.00093 0.000359879 0)
(1.00099 0.000538355 0)
(1.00093 0.000925365 0)
(1.00102 0.00131733 0)
(1.00131 0.00155062 0)
(1.00172 0.00157786 0)
(1.00191 0.00170062 0)
(1.00211 0.00189803 0)
(1.00239 0.00207376 0)
(1.00275 0.00215581 0)
(1.00296 0.0022562 0)
(1.00312 0.00238345 0)
(1.00318 0.00254377 0)
(1.00322 0.00266795 0)
(1.00006 1.23892e-05 0)
(1.00001 -0.000160303 0)
(1.00009 2.56657e-05 0)
(1.00042 0.000220892 0)
(1.00078 0.000293833 0)
(1.0009 0.000311108 0)
(1.00096 0.000439402 0)
(1.00106 0.000586832 0)
(1.00104 0.00091837 0)
(1.00111 0.00127417 0)
(1.00135 0.00153251 0)
(1.00173 0.00159232 0)
(1.00196 0.0016864 0)
(1.00219 0.00184563 0)
(1.00244 0.00201436 0)
(1.0028 0.00210196 0)
(1.00302 0.00220752 0)
(1.00321 0.00231395 0)
(1.00327 0.00244772 0)
(1.00329 0.00255744 0)
(1.00006 1.98632e-05 0)
(1.00002 -0.00012654 0)
(1.00013 5.79337e-05 0)
(1.00044 0.000224167 0)
(1.00078 0.000310052 0)
(1.00092 0.000368681 0)
(1.00098 0.00051407 0)
(1.00111 0.000642274 0)
(1.00113 0.000921312 0)
(1.00121 0.00123343 0)
(1.00139 0.00150109 0)
(1.00174 0.00159369 0)
(1.00199 0.00168298 0)
(1.00225 0.0017999 0)
(1.0025 0.00195758 0)
(1.00284 0.00204321 0)
(1.00308 0.00214164 0)
(1.00328 0.00224141 0)
(1.00335 0.0023519 0)
(1.00335 0.00244635 0)
(1.00005 2.80261e-05 0)
(1.00003 -9.6218e-05 0)
(1.00015 8.85614e-05 0)
(1.00046 0.000239947 0)