/*--------------------------------*- C++ -*----------------------------------*\
| =========                 |                                                 |
| \\      /  F ield         | OpenFOAM: The Open Source CFD Toolbox           |
|  \\    /   O peration     | Version:  2506                                  |
|   \\  /    A nd           | Website:  www.openfoam.com                      |
|    \\/     M anipulation  |                                                 |
\*---------------------------------------------------------------------------*/
FoamFile
{
    version     2.0;
    format      ascii;
    arch        "LSB;label=32;scalar=64";
    class       volScalarField;
    location    "5.05";
    object      p;
}
// * * * * * * * * * * * * * * * * * * * * * * * * * * * * * * * * * * * * * //

dimensions      [0 2 -2 0 0 0 0];

internalField   nonuniform List<scalar> 
9600
(
-1.03559e-10
-0.00602368
-0.00323985
0.0014723
-0.00299719
-0.00707912
-0.00574591
-0.00644607
-0.00786878
-0.00820574
-0.00908588
-0.0100674
-0.00956761
-0.0102764
-0.0120666
-0.0141324
-0.0165076
-0.0175009
-0.0194412
-0.0206487
6.72306e-07
-0.0060245
-0.00323776
0.00145057
-0.00298235
-0.00710423
-0.00575747
-0.00641934
-0.00788351
-0.00821
-0.0090294
-0.0100821
-0.00956179
-0.0103746
-0.012045
-0.0141851
-0.0164853
-0.0175391
-0.0194253
-0.0206807
1.61925e-06
-0.00602584
-0.00323898
0.00142396
-0.0029442
-0.00712724
-0.00575979
-0.00637751
-0.00790858
-0.00821267
-0.00898934
-0.010109
-0.00955687
-0.010449
-0.0120102
-0.0142602
-0.0164463
-0.0175971
-0.0193975
-0.0207222
9.49058e-07
-0.00602772
-0.00324276
0.00139015
-0.00291248
-0.00714598
-0.00575164
-0.00634446
-0.00794828
-0.00821796
-0.00895295
-0.0101505
-0.00955573
-0.0105348
-0.011995
-0.0143365
-0.016418
-0.0176387
-0.0193782
-0.0207775
-1.77279e-06
-0.00602984
-0.00324868
0.00134565
-0.00289731
-0.00715905
-0.00573612
-0.00632582
-0.00800411
-0.00822413
-0.00891732
-0.0102081
-0.00955448
-0.0106368
-0.0119913
-0.0144096
-0.0163965
-0.0176567
-0.0193831
-0.0208182
-6.03096e-06
-0.00603182
-0.00325682
0.00128747
-0.00289481
-0.00716374
-0.00571793
-0.00632078
-0.00807307
-0.00822982
-0.00888334
-0.0102768
-0.00955012
-0.0107488
-0.0119851
-0.0144788
-0.0163695
-0.0176647
-0.0194061
-0.0208271
-1.11671e-05
-0.00603342
-0.00326725
0.00121453
-0.00290039
-0.00716103
-0.005702
-0.00632642
-0.00814948
-0.00823541
-0.00885151
-0.0103491
-0.00954415
-0.0108631
-0.0119772
-0.0145405
-0.0163406
-0.0176695
-0.0194359
-0.0208181
-1.67079e-05
-0.00603447
-0.00327995
0.00112702
-0.00291165
-0.00715292
-0.00569212
-0.00633883
-0.00822835
-0.00824153
-0.00882121
-0.0104208
-0.0095391
-0.0109762
-0.0119728
-0.0145929
-0.0163193
-0.0176668
-0.0194734
-0.0208061
-2.2375e-05
-0.00603495
-0.00329488
0.00102577
-0.00292633
-0.00714057
-0.00568635
-0.00635432
-0.00830669
-0.00824827
-0.00879178
-0.0104906
-0.0095367
-0.011087
-0.0119734
-0.0146368
-0.0163096
-0.0176529
-0.0195236
-0.0207944
-2.80696e-05
-0.00603496
-0.00331201
0.000911911
-0.00294222
-0.00712443
-0.00568498
-0.00637024
-0.00838319
-0.00825554
-0.00876317
-0.0105595
-0.00953812
-0.0111946
-0.01198
-0.0146724
-0.0163125
-0.0176271
-0.0195854
-0.0207832
-3.38721e-05
-0.00603473
-0.00333129
0.000786581
-0.00295795
-0.00710469
-0.00568721
-0.00638516
-0.00845751
-0.00826331
-0.00873554
-0.0106289
-0.00954418
-0.011298
-0.0119938
-0.014698
-0.0163297
-0.0175895
-0.0196542
-0.0207778
-4.00041e-05
-0.00603452
-0.00335264
0.000650887
-0.00297302
-0.00708153
-0.00569247
-0.00639855
-0.00853017
-0.00827171
-0.00870906
-0.0106998
-0.00955539
-0.0113955
-0.0120165
-0.0147118
-0.0163629
-0.0175417
-0.0197248
-0.0207851
-4.67555e-05
-0.00603464
-0.00337599
0.000506107
-0.00298762
-0.00705542
-0.00570046
-0.00641039
-0.00860206
-0.00828092
-0.00868389
-0.0107727
-0.00957226
-0.0114855
-0.01205
-0.0147126
-0.0164129
-0.0174876
-0.0197905
-0.0208094
-5.44187e-05
-0.00603535
-0.00340129
0.000353857
-0.00300234
-0.00702715
-0.00571104
-0.0064208
-0.00867415
-0.00829124
-0.00865999
-0.0108476
-0.00959561
-0.0115663
-0.0120966
-0.0147004
-0.0164791
-0.0174326
-0.0198433
-0.0208526
-6.3245e-05
-0.00603687
-0.00342856
0.000196008
-0.00301783
-0.00699774
-0.00572428
-0.00642986
-0.0087473
-0.00830295
-0.00863719
-0.0109246
-0.00962625
-0.0116366
-0.0121588
-0.0146762
-0.0165588
-0.017383
-0.0198756
-0.0209143
-7.34295e-05
-0.0060393
-0.00345792
3.4422e-05
-0.00303471
-0.00696826
-0.00574046
-0.00643765
-0.00882203
-0.00831625
-0.00861537
-0.0110035
-0.00966492
-0.0116954
-0.0122383
-0.014642
-0.0166474
-0.0173459
-0.019882
-0.0209916
-8.51189e-05
-0.00604261
-0.00348955
-0.000129322
-0.00305358
-0.00693957
-0.00576
-0.00644415
-0.00889858
-0.00833142
-0.00859452
-0.0110839
-0.00971273
-0.0117417
-0.0123355
-0.014601
-0.0167395
-0.0173278
-0.0198592
-0.0210791
-9.84392e-05
-0.00604669
-0.00352368
-0.000294112
-0.00307496
-0.0069122
-0.00578333
-0.00644919
-0.00897707
-0.00834882
-0.0085746
-0.011165
-0.00977111
-0.0117751
-0.0124489
-0.0145565
-0.0168295
-0.0173338
-0.0198067
-0.0211691
-0.000113534
-0.00605131
-0.00356062
-0.000459306
-0.00309932
-0.00688627
-0.00581094
-0.00645256
-0.00905743
-0.00836907
-0.00855539
-0.0112464
-0.00984123
-0.0117956
-0.0125758
-0.0145126
-0.0169119
-0.0173654
-0.0197268
-0.0212531
-0.000130585
-0.00605622
-0.0036007
-0.000624539
-0.0031271
-0.00686162
-0.00584326
-0.00645415
-0.00913936
-0.00839286
-0.00853656
-0.0113274
-0.00992395
-0.0118039
-0.0127131
-0.0144736
-0.0169813
-0.017422
-0.0196244
-0.0213221
-0.000149816
-0.00606114
-0.00364432
-0.000789566
-0.00315869
-0.00683799
-0.00588073
-0.00645399
-0.00922257
-0.00842103
-0.00851757
-0.0114078
-0.0100197
-0.0118006
-0.012858
-0.014443
-0.0170336
-0.0175034
-0.0195066
-0.0213663
-0.000171501
-0.00606574
-0.00369192
-0.000954154
-0.00319447
-0.0068151
-0.0059238
-0.00645207
-0.00930669
-0.00845477
-0.00849755
-0.0114875
-0.0101288
-0.0117863
-0.0130074
-0.0144242
-0.0170664
-0.017608
-0.0193816
-0.0213755
-0.000195957
-0.00606971
-0.00374401
-0.00111805
-0.00323489
-0.00679262
-0.00597297
-0.00644856
-0.00939078
-0.00849527
-0.0084769
-0.0115667
-0.0102518
-0.0117616
-0.0131579
-0.0144209
-0.0170777
-0.0177322
-0.0192588
-0.0213398
-0.000223539
-0.0060727
-0.0038011
-0.00128098
-0.00328041
-0.00677025
-0.00602863
-0.00644384
-0.00947369
-0.00854388
-0.00845305
-0.011645
-0.0103896
-0.0117273
-0.0133067
-0.0144371
-0.0170654
-0.0178705
-0.0191492
-0.0212516
-0.000254647
-0.00607432
-0.00386374
-0.00144263
-0.00333156
-0.00674779
-0.00609092
-0.00643858
-0.00955429
-0.00860255
-0.00842516
-0.0117207
-0.0105436
-0.0116842
-0.0134501
-0.0144768
-0.0170281
-0.0180148
-0.0190646
-0.0211093
-0.000289727
-0.00607416
-0.0039325
-0.00160261
-0.00338883
-0.00672515
-0.00615997
-0.0064337
-0.00963075
-0.00867322
-0.00839388
-0.0117915
-0.0107152
-0.0116335
-0.0135833
-0.0145445
-0.0169671
-0.0181539
-0.0190173
-0.020921
-0.000329264
-0.00607183
-0.00400788
-0.00176058
-0.00345269
-0.00670237
-0.00623572
-0.00643034
-0.009701
-0.00875771
-0.00836022
-0.0118546
-0.0109053
-0.0115773
-0.0137009
-0.0146438
-0.0168871
-0.0182746
-0.0190159
-0.020702
-0.000373789
-0.00606686
-0.00409048
-0.00191615
-0.00352348
-0.00667978
-0.00631757
-0.00643004
-0.00976297
-0.00885749
-0.00832504
-0.0119059
-0.0111155
-0.0115201
-0.0137962
-0.014776
-0.0167972
-0.0183619
-0.0190598
-0.0204751
-0.000423889
-0.00605875
-0.00418089
-0.002069
-0.00360138
-0.0066578
-0.00640482
-0.00643463
-0.00981442
-0.0089731
-0.0082908
-0.0119415
-0.0113464
-0.0114678
-0.0138619
-0.0149389
-0.0167104
-0.0184021
-0.019138
-0.0202699
-0.000480165
-0.00604705
-0.00427957
-0.00221898
-0.00368645
-0.00663701
-0.00649636
-0.00644623
-0.00985342
-0.00910412
-0.00826106
-0.0119581
-0.0115967
-0.0114282
-0.0138916
-0.0151265
-0.0166423
-0.0183877
-0.0192321
-0.0201155
-0.00054324
-0.00603127
-0.00438695
-0.00236601
-0.0037784
-0.00661851
-0.00658999
-0.00646726
-0.00987909
-0.00924892
-0.00823979
-0.0119948
-0.0118635
-0.0114095
-0.0138821
-0.0153296
-0.0166072
-0.01832
-0.0193186
-0.0200294
-0.000613822
-0.00601089
-0.00450336
-0.00251024
-0.00387661
-0.0066036
-0.00668334
-0.00649987
-0.00989083
-0.0094048
-0.00823101
-0.0119637
-0.0121415
-0.0114201
-0.0138328
-0.0155362
-0.0166151
-0.0182093
-0.0193723
-0.0200104
-0.000692622
-0.00598538
-0.00462905
-0.00265222
-0.00398005
-0.00659397
-0.00677409
-0.00654519
-0.0098886
-0.00956878
-0.00823999
-0.011908
-0.0124233
-0.0114669
-0.0137475
-0.0157318
-0.016671
-0.0180733
-0.0193706
-0.020037
-0.000780312
-0.00595428
-0.00476419
-0.00279264
-0.00408717
-0.00659201
-0.00685977
-0.00660346
-0.00987972
-0.00973668
-0.00827113
-0.0118311
-0.0126999
-0.0115549
-0.0136332
-0.0159014
-0.0167739
-0.0179324
-0.0193027
-0.0200785
-0.000877682
-0.00591712
-0.00490812
-0.00293252
-0.00419597
-0.00660033
-0.00693923
-0.00667434
-0.00986423
-0.00990373
-0.00832695
-0.011737
-0.0129637
-0.0116873
-0.0134989
-0.0160316
-0.0169181
-0.017806
-0.0191708
-0.0201023
-0.000985446
-0.00587367
-0.00506015
-0.00307331
-0.00430368
-0.0066214
-0.00701246
-0.00675583
-0.00984508
-0.0100667
-0.00840889
-0.0116311
-0.013208
-0.0118636
-0.0133561
-0.0161122
-0.0170928
-0.0177108
-0.0189887
-0.020078
-0.00110426
-0.00582382
-0.00521947
-0.00321631
-0.00440699
-0.00665674
-0.00708073
-0.00684481
-0.00982558
-0.0102241
-0.00851649
-0.0115186
-0.0134277
-0.0120805
-0.0132167
-0.0161359
-0.0172852
-0.0176598
-0.0187755
-0.0199871
-0.00123474
-0.0057676
-0.00538481
-0.00336444
-0.00450282
-0.00670658
-0.00714764
-0.00693803
-0.00980782
-0.0103758
-0.00864813
-0.0114035
-0.0136189
-0.0123344
-0.0130931
-0.0160973
-0.0174808
-0.0176612
-0.0185485
-0.0198278
-0.00137733
-0.00570539
-0.00555396
-0.0035213
-0.00458922
-0.00676986
-0.00721751
-0.00703212
-0.00979301
-0.0105215
-0.00880264
-0.01129
-0.013777
-0.0126202
-0.012998
-0.0159951
-0.0176622
-0.01772
-0.0183243
-0.0196058
-0.00153248
-0.00563791
-0.00572387
-0.00369002
-0.00466546
-0.00684388
-0.0072948
-0.00712486
-0.00978153
-0.0106622
-0.00897894
-0.0111816
-0.0138976
-0.0129303
-0.0129436
-0.0158348
-0.0178092
-0.0178357
-0.0181248
-0.0193291
-0.00170043
-0.0055661
-0.00589148
-0.00387328
-0.00473169
-0.00692498
-0.0073837
-0.0072151
-0.00977139
-0.0108004
-0.00917654
-0.011082
-0.0139773
-0.0132558
-0.012942
-0.015628
-0.0178989
-0.0179992
-0.0179775
-0.0190126
-0.00188122
-0.00549132
-0.00605344
-0.00407352
-0.00478928
-0.00700813
-0.0074886
-0.00730353
-0.0097585
-0.010938
-0.00939622
-0.0109956
-0.0140132
-0.0135868
-0.0130023
-0.0153917
-0.0179101
-0.0181877
-0.0179067
-0.0186817
-0.00207484
-0.0054157
-0.0062056
-0.00429226
-0.00484097
-0.00708749
-0.00761248
-0.00739323
-0.00973836
-0.011073
-0.00963969
-0.010928
-0.0140038
-0.0139109
-0.0131288
-0.0151475
-0.0178306
-0.0183715
-0.017923
-0.0183723
-0.00228093
-0.00534161
-0.00634431
-0.00453002
-0.00489044
-0.00715686
-0.00775652
-0.00749022
-0.00970734
-0.0112022
-0.00990855
-0.0108866
-0.0139482
-0.0142135
-0.0133196
-0.0149198
-0.0176611
-0.0185196
-0.018019
-0.0181232
-0.00249889
-0.00527175
-0.00646621
-0.00478658
-0.00494323
-0.00721017
-0.00791874
-0.00760287
-0.00966481
-0.0113187
-0.0102011
-0.01088
-0.0138493
-0.0144798
-0.0135662
-0.014733
-0.017416
-0.0186014
-0.0181692
-0.0179652
-0.00272782
-0.00520945
-0.00656775
-0.00506033
-0.00500712
-0.0072432
-0.00809431
-0.00774065
-0.00961466
-0.0114116
-0.0105097
-0.0109175
-0.0137166
-0.0146935
-0.0138526
-0.0146094
-0.01712
-0.0185945
-0.0183391
-0.0179109
-0.00296636
-0.00515826
-0.0066462
-0.00534851
-0.00509013
-0.0072544
-0.008275
-0.00790985
-0.00956425
-0.0114714
-0.0108241
-0.0110068
-0.0135655
-0.0148401
-0.0141572
-0.0145625
-0.0168049
-0.0184933
-0.0184913
-0.0179499
-0.00321272
-0.00512177
-0.00669974
-0.00564554
-0.00520049
-0.00724589
-0.00845015
-0.00811117
-0.00952492
-0.0114949
-0.0111305
-0.0111479
-0.0134129
-0.0149144
-0.0144574
-0.0145937
-0.016505
-0.0183094
-0.0185891
-0.0180496
-0.00346467
-0.00510321
-0.0067277
-0.00594378
-0.00534609
-0.00722423
-0.00860786
-0.0083406
-0.0095099
-0.0114847
-0.0114131
-0.0113327
-0.0132775
-0.0149221
-0.014732
-0.0146926
-0.0162483
-0.0180667
-0.0186095
-0.0181673
-0.00371963
-0.0051052
-0.0067352
-0.00623471
-0.00553163
-0.00720038
-0.00873802
-0.00859006
-0.00953048
-0.0114489
-0.011659
-0.0115491
-0.0131757
-0.0148752
-0.0149618
-0.0148417
-0.0160534
-0.0177933
-0.0185508
-0.0182638
-0.00397484
-0.00512992
-0.00672661
-0.00650877
-0.00575775
-0.00718868
-0.00883614
-0.00884693
-0.00959114
-0.0113981
-0.0118607
-0.0117828
-0.0131169
-0.0147903
-0.0151333
-0.0150193
-0.0159291
-0.0175164
-0.0184266
-0.0183151
-0.00422778
-0.00517873
-0.0067079
-0.00675838
-0.00602083
-0.007203
-0.00890385
-0.00909697
-0.00968944
-0.0113448
-0.0120162
-0.0120198
-0.0131041
-0.0146864
-0.015241
-0.0152005
-0.0158735
-0.0172608
-0.0182542
-0.0183143
-0.00447634
-0.00525175
-0.00668662
-0.00697935
-0.00631244
-0.00725334
-0.00894641
-0.00932921
-0.0098199
-0.0113004
-0.0121278
-0.0122471
-0.0131344
-0.0145814
-0.0152897
-0.0153616
-0.0158724
-0.0170461
-0.0180516
-0.0182635
-0.00471869
-0.0053478
-0.00667107
-0.007171
-0.00662034
-0.00734506
-0.00897593
-0.00953678
-0.0099735
-0.0112732
-0.0122013
-0.0124536
-0.0131998
-0.0144904
-0.0152924
-0.0154866
-0.0159036
-0.0168817
-0.0178396
-0.0181674
-0.00495365
-0.00546477
-0.00666832
-0.00733415
-0.00693202
-0.00747917
-0.00900609
-0.00971748
-0.0101395
-0.0112673
-0.0122447
-0.0126312
-0.0132903
-0.0144236
-0.0152646
-0.0155707
-0.0159448
-0.0167626
-0.0176388
-0.0180335
-0.00518055
-0.00560026
-0.00668399
-0.00747205
-0.0072377
-0.00765288
-0.00904617
-0.00987253
-0.0103102
-0.0112835
-0.0122663
-0.0127752
-0.0133942
-0.0143864
-0.0152208
-0.0156166
-0.0159795
-0.0166743
-0.017462
-0.0178778
-0.00539944
-0.00575053
-0.00672212
-0.00759184
-0.0075297
-0.00785703
-0.00910202
-0.0100064
-0.0104804
-0.0113214
-0.0122743
-0.0128834
-0.0134995
-0.0143778
-0.0151754
-0.0156329
-0.016001
-0.0166024
-0.017309
-0.017719
-0.00561173
-0.00591243
-0.00678357
-0.00770156
-0.00780324
-0.00808053
-0.00917719
-0.0101241
-0.0106457
-0.0113809
-0.012277
-0.0129572
-0.0135948
-0.0143908
-0.0151388
-0.0156301
-0.0160104
-0.0165377
-0.0171696
-0.0175666
-0.00581926
-0.00608499
-0.00686712
-0.00780576
-0.00805684
-0.00831484
-0.00927111
-0.010229
-0.010804
-0.011461
-0.0122825
-0.0130005
-0.0136708
-0.0144165
-0.0151152
-0.0156169
-0.0160095
-0.0164785
-0.0170365
-0.0174186
-0.00602331
-0.00626557
-0.00697151
-0.00790825
-0.00829052
-0.00855458
-0.00938218
-0.0103245
-0.0109535
-0.0115589
-0.012298
-0.0130209
-0.0137208
-0.0144449
-0.0151044
-0.0156
-0.0159994
-0.0164276
-0.0169117
-0.017269
-0.00622502
-0.00645237
-0.0070947
-0.00801241
-0.00850526
-0.00879511
-0.00951063
-0.0104135
-0.0110903
-0.0116702
-0.0123297
-0.0130277
-0.0137427
-0.0144631
-0.0151022
-0.015586
-0.0159816
-0.0163836
-0.0168011
-0.0171176
-0.00642548
-0.00664401
-0.00723449
-0.00812114
-0.00870239
-0.00903228
-0.00965522
-0.0104997
-0.0112106
-0.0117879
-0.0123809
-0.0130315
-0.0137414
-0.0144615
-0.0150989
-0.0155783
-0.0159607
-0.016341
-0.0167076
-0.0169729
-0.00662563
-0.00683947
-0.00738855
-0.00823656
-0.00888386
-0.00926255
-0.00981376
-0.0105878
-0.0113128
-0.0119028
-0.0124496
-0.0130429
-0.0137266
-0.014438
-0.0150801
-0.0155722
-0.0159437
-0.0162973
-0.0166282
-0.0168435
-0.00682594
-0.00703735
-0.00755496
-0.0083604
-0.00905198
-0.00948293
-0.00998374
-0.0106821
-0.0113999
-0.0120064
-0.0125283
-0.0130668
-0.0137069
-0.0143994
-0.0150394
-0.0155537
-0.0159305
-0.0162556
-0.016556
-0.0167311
-0.00702711
-0.00723704
-0.00773148
-0.00849386
-0.00920996
-0.0096913
-0.0101609
-0.0107848
-0.011477
-0.0120938
-0.0126083
-0.0131041
-0.0136894
-0.0143521
-0.0149824
-0.0155112
-0.01591
-0.0162162
-0.0164849
-0.0166311
-0.00722959
-0.00743744
-0.00791579
-0.00863809
-0.00936166
-0.00988609
-0.0103406
-0.0108979
-0.0115487
-0.0121636
-0.0126801
-0.0131493
-0.0136796
-0.0142992
-0.0149158
-0.0154484
-0.0158713
-0.0161767
-0.0164132
-0.0165343
-0.00743402
-0.00763877
-0.00810516
-0.00879271
-0.00950964
-0.010067
-0.0105191
-0.0110218
-0.0116212
-0.0122195
-0.0127364
-0.0131924
-0.0136773
-0.0142431
-0.0148373
-0.0153698
-0.0158103
-0.0161324
-0.0163482
-0.016442
-0.00764036
-0.00784047
-0.00829802
-0.00895723
-0.00965797
-0.0102355
-0.0106913
-0.0111528
-0.0116988
-0.0122668
-0.0127769
-0.0132253
-0.0136777
-0.0141889
-0.0147444
-0.0152718
-0.0157228
-0.0160684
-0.0162863
-0.0163606
-0.00784876
-0.00804306
-0.0084923
-0.00912926
-0.00980997
-0.0103958
-0.0108554
-0.0112866
-0.0117823
-0.0123103
-0.0128045
-0.0132416
-0.0136691
-0.0141364
-0.014642
-0.0151505
-0.0156052
-0.0159689
-0.0162062
-0.016279
-0.00805875
-0.00824754
-0.00868721
-0.00930698
-0.00996652
-0.0105509
-0.0110127
-0.0114212
-0.0118696
-0.0123524
-0.0128241
-0.0132454
-0.013645
-0.0140755
-0.0145335
-0.0150059
-0.0154527
-0.0158243
-0.016083
-0.0161706
-0.00826932
-0.0084512
-0.00888256
-0.00948948
-0.0101301
-0.0107037
-0.0111637
-0.0115572
-0.0119617
-0.0123919
-0.012831
-0.013234
-0.0136053
-0.013998
-0.0144149
-0.0148454
-0.0152724
-0.0156398
-0.0159043
-0.0160027
-0.0084812
-0.00865742
-0.00907724
-0.00967196
-0.0102988
-0.0108598
-0.0113117
-0.0116939
-0.0120632
-0.0124387
-0.0128295
-0.0131966
-0.0135352
-0.0138861
-0.0142628
-0.0146551
-0.0150605
-0.0154263
-0.015692
-0.0157941
-0.00869375
-0.00886554
-0.00927288
-0.00985462
-0.0104684
-0.0110188
-0.0114639
-0.0118334
-0.012176
-0.0125043
-0.0128357
-0.0131449
-0.0134197
-0.0137062
-0.0140365
-0.0143945
-0.0147818
-0.0151611
-0.0154508
-0.0155856
-0.00890417
-0.0090715
-0.00947073
-0.0100401
-0.0106391
-0.0111746
-0.0116165
-0.0119815
-0.0123092
-0.0126145
-0.0128919
-0.0131057
-0.0132639
-0.0134216
-0.0136346
-0.0139045
-0.0142396
-0.0146262
-0.0150265
-0.0153469
-0.00911184
-0.00927836
-0.00967107
-0.0102263
-0.0108087
-0.0113268
-0.0117616
-0.0121287
-0.0124599
-0.012785
-0.0130991
-0.0132949
-0.0133221
-0.0132936
-0.0133252
-0.0134023
-0.0134605
-0.0134593
-0.0133933
-0.0133329
-0.00932146
-0.00948435
-0.00987278
-0.0104156
-0.010977
-0.0114726
-0.0118888
-0.0122543
-0.0125467
-0.0127209
-0.0128284
-0.0129005
-0.0129614
-0.0130237
-0.0131055
-0.0131762
-0.0132106
-0.01325
-0.0133408
-0.0135207
-0.00953758
-0.00968703
-0.0100664
-0.0106029
-0.0111601
-0.0116226
-0.0119327
-0.0121389
-0.0123251
-0.0125279
-0.0127213
-0.012897
-0.0130719
-0.0132008
-0.0132909
-0.0133295
-0.0132851
-0.0131692
-0.0130246
-0.0129486
-0.00977133
-0.00988729
-0.0101961
-0.0106451
-0.0111162
-0.0115176
-0.0118302
-0.0120867
-0.0123199
-0.0125538
-0.012763
-0.0129048
-0.0130132
-0.0130996
-0.0132065
-0.013402
-0.0137076
-0.0141198
-0.0145975
-0.0150472
-0.0100252
-0.0101528
-0.0103623
-0.010698
-0.0110921
-0.0114786
-0.0118285
-0.0121366
-0.0124118
-0.012647
-0.0128457
-0.0129754
-0.0130547
-0.0131168
-0.0131397
-0.0131089
-0.0130185
-0.0128889
-0.0127843
-0.0127972
-0.0101964
-0.01031
-0.0104917
-0.0107762
-0.0111279
-0.011499
-0.01185
-0.0121664
-0.012447
-0.0126761
-0.012853
-0.0129784
-0.0130516
-0.0130959
-0.0131155
-0.013117
-0.0131296
-0.0131686
-0.0132727
-0.0134955
-0.0224509
-0.0233155
-0.0272071
-0.0302087
-0.0299798
-0.0279908
-0.0257459
-0.0238127
-0.0224325
-0.0216517
-0.0212686
-0.0210901
-0.0209508
-0.0206098
-0.0200772
-0.0196548
-0.0194428
-0.0192967
-0.01911
-0.0188295
-0.0184541
-0.0180961
-0.0178259
-0.0175847
-0.0173234
-0.0170699
-0.0168626
-0.0167241
-0.0165894
-0.0163784
-0.0161414
-0.0159686
-0.0158311
-0.0156548
-0.0154426
-0.0153003
-0.0152976
-0.0153857
-0.0154499
-0.0153759
-0.0151413
-0.0148532
-0.014592
-0.014336
-0.0141112
-0.013942
-0.0137791
-0.0136204
-0.0135234
-0.0134478
-0.0133008
-0.0130513
-0.0127962
-0.0125749
-0.0123794
-0.0121874
-0.0119859
-0.0117764
-0.0115688
-0.0113432
-0.0111021
-0.0108899
-0.0106838
-0.0104526
-0.0102183
-0.00997134
-0.00966914
-0.00936047
-0.00908028
-0.0087913
-0.00850781
-0.00821446
-0.00792161
-0.00761696
-0.00732392
-0.00701099
-0.00667993
-0.00631948
-0.00595879
-0.00566366
-0.00535791
-0.00502513
-0.00465184
-0.00429042
-0.00389811
-0.00353688
-0.00315209
-0.00277912
-0.00237028
-0.0019675
-0.00157569
-0.00112909
-0.000724026
-0.000255456
0.000176431
0.000668308
0.00123718
0.00178565
0.00253279
0.00332295
-0.0224656
-0.0233427
-0.0270868
-0.0300876
-0.0299181
-0.0279601
-0.0257261
-0.0237974
-0.0224192
-0.0216397
-0.0212579
-0.0210812
-0.0209443
-0.0206051
-0.0200731
-0.0196508
-0.0194393
-0.0192937
-0.0191074
-0.0188272
-0.0184519
-0.0180938
-0.0178237
-0.0175827
-0.0173215
-0.0170679
-0.0168607
-0.0167222
-0.0165877
-0.0163768
-0.0161398
-0.0159671
-0.0158297
-0.0156536
-0.0154414
-0.0152991
-0.0152964
-0.0153846
-0.015449
-0.0153752
-0.0151406
-0.0148524
-0.0145913
-0.0143354
-0.0141106
-0.0139414
-0.0137786
-0.0136199
-0.0135229
-0.0134473
-0.0133004
-0.013051
-0.0127958
-0.0125746
-0.012379
-0.0121871
-0.0119856
-0.0117761
-0.0115685
-0.0113429
-0.0111018
-0.0108896
-0.0106836
-0.0104523
-0.0102181
-0.00997111
-0.00966892
-0.00936024
-0.00908006
-0.00879109
-0.0085076
-0.00821426
-0.00792141
-0.00761677
-0.00732373
-0.00701082
-0.00667976
-0.00631932
-0.00595863
-0.0056635
-0.00535777
-0.00502499
-0.00465171
-0.00429029
-0.00389799
-0.00353676
-0.00315197
-0.00277902
-0.00237018
-0.0019674
-0.00157559
-0.001129
-0.000723927
-0.000255366
0.000176529
0.000668396
0.00123727
0.00178577
0.00253295
0.00332322
-0.0226295
-0.0234091
-0.0268439
-0.0298372
-0.0298016
-0.027914
-0.0257023
-0.023782
-0.0224082
-0.0216308
-0.021249
-0.0210715
-0.020935
-0.0205974
-0.0200673
-0.0196465
-0.0194359
-0.0192906
-0.0191048
-0.0188251
-0.0184499
-0.0180918
-0.0178218
-0.0175809
-0.0173198
-0.0170664
-0.0168591
-0.0167207
-0.0165863
-0.0163755
-0.0161384
-0.0159657
-0.0158285
-0.0156524
-0.0154402
-0.0152978
-0.0152953
-0.0153836
-0.0154484
-0.0153747
-0.01514
-0.0148518
-0.0145907
-0.0143348
-0.0141101
-0.0139409
-0.0137781
-0.0136194
-0.0135224
-0.013447
-0.0133002
-0.0130507
-0.0127955
-0.0125742
-0.0123787
-0.0121868
-0.0119854
-0.0117758
-0.0115682
-0.0113427
-0.0111016
-0.0108894
-0.0106833
-0.0104521
-0.0102179
-0.00997093
-0.00966873
-0.00936003
-0.00907986
-0.0087909
-0.00850742
-0.00821408
-0.00792124
-0.0076166
-0.00732357
-0.00701067
-0.00667963
-0.00631918
-0.00595847
-0.00566336
-0.00535765
-0.00502488
-0.00465159
-0.00429018
-0.00389788
-0.00353666
-0.00315187
-0.00277892
-0.00237009
-0.00196731
-0.00157551
-0.00112892
-0.000723845
-0.00025529
0.00017661
0.00066846
0.00123735
0.00178585
0.00253306
0.00332358
-0.0228068
-0.0234347
-0.0265114
-0.0294956
-0.0296335
-0.0278477
-0.0256687
-0.0237613
-0.0223956
-0.0216227
-0.0212411
-0.0210604
-0.020921
-0.0205842
-0.0200576
-0.0196402
-0.019431
-0.019286
-0.0191006
-0.018822
-0.0184478
-0.0180899
-0.0178196
-0.0175788
-0.0173181
-0.017065
-0.0168578
-0.0167192
-0.0165848
-0.0163741
-0.0161371
-0.0159644
-0.0158272
-0.0156511
-0.0154388
-0.0152964
-0.015294
-0.0153826
-0.0154477
-0.0153742
-0.0151394
-0.014851
-0.0145899
-0.0143341
-0.0141095
-0.0139404
-0.0137776
-0.0136188
-0.013522
-0.0134467
-0.0132999
-0.0130504
-0.0127951
-0.0125739
-0.0123784
-0.0121865
-0.0119851
-0.0117755
-0.011568
-0.0113425
-0.0111013
-0.0108891
-0.0106831
-0.0104519
-0.0102177
-0.00997076
-0.00966855
-0.00935982
-0.00907967
-0.00879071
-0.00850723
-0.00821391
-0.00792107
-0.00761643
-0.00732341
-0.00701053
-0.00667949
-0.00631904
-0.00595829
-0.00566321
-0.00535753
-0.00502477
-0.00465148
-0.00429007
-0.00389777
-0.00353655
-0.00315178
-0.00277883
-0.00237
-0.00196721
-0.00157543
-0.00112883
-0.000723765
-0.000255215
0.000176686
0.00066851
0.00123741
0.0017859
0.00253312
0.0033241
-0.0229424
-0.023441
-0.02616
-0.0291221
-0.0294431
-0.0277721
-0.0256296
-0.0237364
-0.0223806
-0.0216141
-0.0212336
-0.0210478
-0.0209018
-0.0205642
-0.0200433
-0.0196317
-0.0194243
-0.0192786
-0.0190934
-0.0188168
-0.018445
-0.0180879
-0.0178171
-0.0175759
-0.0173159
-0.0170639
-0.0168568
-0.0167177
-0.0165829
-0.0163726
-0.016136
-0.0159633
-0.0158257
-0.0156494
-0.0154371
-0.0152948
-0.0152925
-0.0153813
-0.0154467
-0.0153735
-0.0151387
-0.01485
-0.0145889
-0.0143332
-0.0141087
-0.0139397
-0.0137769
-0.0136181
-0.0135214
-0.0134463
-0.0132997
-0.01305
-0.0127946
-0.0125734
-0.012378
-0.0121862
-0.0119848
-0.0117752
-0.0115677
-0.0113422
-0.011101
-0.0108889
-0.0106829
-0.0104517
-0.0102175
-0.00997058
-0.00966834
-0.00935959
-0.00907946
-0.00879051
-0.00850704
-0.00821373
-0.00792089
-0.00761624
-0.00732324
-0.00701038
-0.00667934
-0.00631889
-0.00595809
-0.00566304
-0.00535741
-0.00502465
-0.00465135
-0.00428995
-0.00389764
-0.00353643
-0.00315167
-0.00277873
-0.00236991
-0.0019671
-0.00157535
-0.00112874
-0.000723682
-0.000255138
0.00017676
0.000668549
0.00123746
0.00178592
0.00253311
0.00332478
-0.0230545
-0.0234701
-0.0258169
-0.0287286
-0.0292343
-0.0276898
-0.025588
-0.0237088
-0.0223632
-0.0216043
-0.0212257
-0.0210338
-0.0208788
-0.0205395
-0.0200259
-0.0196219
-0.0194161
-0.0192683
-0.0190825
-0.0188089
-0.0184412
-0.0180859
-0.0178141
-0.0175719
-0.0173129
-0.0170627
-0.0168563
-0.0167161
-0.0165806
-0.0163709
-0.0161354
-0.0159626
-0.0158241
-0.0156473
-0.0154352
-0.0152931
-0.0152907
-0.0153795
-0.0154453
-0.0153725
-0.0151377
-0.0148488
-0.0145876
-0.0143321
-0.0141077
-0.0139388
-0.013776
-0.0136172
-0.0135207
-0.0134459
-0.0132993
-0.0130495
-0.0127941
-0.0125729
-0.0123775
-0.0121858
-0.0119844
-0.0117749
-0.0115673
-0.0113419
-0.0111007
-0.0108886
-0.0106826
-0.0104514
-0.0102172
-0.00997039
-0.00966812
-0.00935934
-0.00907924
-0.00879029
-0.00850683
-0.00821353
-0.00792069
-0.00761604
-0.00732306
-0.00701022
-0.00667919
-0.00631872
-0.00595787
-0.00566287
-0.00535728
-0.00502452
-0.00465121
-0.00428981
-0.0038975
-0.00353629
-0.00315155
-0.00277862
-0.0023698
-0.00196699
-0.00157526
-0.00112864
-0.000723596
-0.000255058
0.000176829
0.000668576
0.0012375
0.00178587
0.002533
0.00332565
-0.0231602
-0.0235259
-0.0254789
-0.0283105
-0.029004
-0.0276006
-0.0255449
-0.0236796
-0.0223434
-0.0215924
-0.0212164
-0.0210185
-0.0208537
-0.0205126
-0.0200076
-0.019612
-0.0194073
-0.019256
-0.0190685
-0.0187982
-0.0184361
-0.0180835
-0.0178106
-0.017567
-0.017309
-0.0170613
-0.0168557
-0.0167142
-0.0165776
-0.016369
-0.0161351
-0.0159623
-0.0158227
-0.0156452
-0.0154333
-0.0152915
-0.0152888
-0.015377
-0.015443
-0.015371
-0.0151364
-0.0148471
-0.0145858
-0.0143307
-0.0141066
-0.0139377
-0.0137747
-0.0136161
-0.0135199
-0.0134453
-0.0132988
-0.013049
-0.0127935
-0.0125723
-0.012377
-0.0121853
-0.011984
-0.0117744
-0.0115669
-0.0113415
-0.0111003
-0.0108882
-0.0106823
-0.0104511
-0.010217
-0.00997018
-0.00966788
-0.00935908
-0.00907901
-0.00879005
-0.00850661
-0.00821333
-0.00792048
-0.00761583
-0.00732286
-0.00701004
-0.00667902
-0.00631854
-0.00595763
-0.00566267
-0.00535714
-0.00502438
-0.00465105
-0.00428966
-0.00389734
-0.00353614
-0.00315142
-0.0027785
-0.00236969
-0.00196686
-0.00157517
-0.00112853
-0.000723508
-0.000254974
0.000176889
0.000668588
0.00123752
0.00178574
0.00253277
0.00332669
-0.0232514
-0.0235937
-0.0251432
-0.0278681
-0.0287516
-0.0275046
-0.025501
-0.0236492
-0.0223213
-0.0215781
-0.0212055
-0.0210021
-0.0208276
-0.0204848
-0.0199888
-0.0196023
-0.0193985
-0.0192427
-0.0190526
-0.0187855
-0.0184298
-0.0180807
-0.0178068
-0.0175615
-0.0173045
-0.0170594
-0.0168548
-0.0167115
-0.0165736
-0.0163665
-0.0161349
-0.0159623
-0.0158211
-0.0156429
-0.0154319
-0.0152906
-0.0152871
-0.0153742
-0.0154399
-0.0153686
-0.0151344
-0.0148448
-0.0145835
-0.014329
-0.0141055
-0.0139363
-0.0137732
-0.0136147
-0.0135188
-0.0134444
-0.0132981
-0.0130482
-0.0127927
-0.0125716
-0.0123763
-0.0121847
-0.0119834
-0.0117739
-0.0115663
-0.011341
-0.0110999
-0.0108878
-0.0106819
-0.0104508
-0.0102167
-0.00996993
-0.0096676
-0.00935881
-0.00907876
-0.0087898
-0.00850638
-0.00821312
-0.00792026
-0.0076156
-0.00732264
-0.00700985
-0.00667883
-0.00631835
-0.00595736
-0.00566245
-0.00535698
-0.00502422
-0.00465087
-0.00428949
-0.00389716
-0.00353597
-0.00315126
-0.00277835
-0.00236955
-0.00196672
-0.00157506
-0.00112841
-0.000723416
-0.000254883
0.000176938
0.000668583
0.00123752
0.00178548
0.00253238
0.00332792
-0.0233129
-0.0236662
-0.0248184
-0.0274071
-0.0284765
-0.0274007
-0.0254562
-0.023618
-0.0222968
-0.0215609
-0.0211926
-0.0209849
-0.020801
-0.0204564
-0.0199697
-0.0195926
-0.0193895
-0.0192287
-0.0190356
-0.0187716
-0.0184226
-0.0180774
-0.0178026
-0.0175557
-0.0172997
-0.0170573
-0.0168534
-0.016708
-0.0165687
-0.0163635
-0.0161347
-0.0159623
-0.0158194
-0.0156406
-0.0154309
-0.0152907
-0.0152863
-0.0153716
-0.0154364
-0.0153655
-0.0151317
-0.0148416
-0.0145803
-0.014327
-0.0141043
-0.0139349
-0.0137714
-0.0136131
-0.0135174
-0.0134432
-0.013297
-0.0130473
-0.0127918
-0.0125707
-0.0123754
-0.012184
-0.0119828
-0.0117732
-0.0115656
-0.0113404
-0.0110993
-0.0108872
-0.0106814
-0.0104504
-0.0102165
-0.00996964
-0.00966728
-0.00935851
-0.00907847
-0.0087895
-0.00850613
-0.00821289
-0.00792002
-0.00761536
-0.00732242
-0.00700964
-0.00667863
-0.00631813
-0.00595707
-0.00566222
-0.00535681
-0.00502405
-0.00465067
-0.0042893
-0.00389695
-0.00353577
-0.00315108
-0.00277819
-0.00236939
-0.00196655
-0.00157492
-0.00112827
-0.000723315
-0.000254778
0.000176974
0.000668561
0.00123749
0.00178506
0.00253178
0.00332934
-0.0233361
-0.0237412
-0.0245152
-0.0269321
-0.0281759
-0.0272859
-0.0254095
-0.0235862
-0.0222702
-0.0215408
-0.0211775
-0.0209666
-0.0207738
-0.0204274
-0.01995
-0.0195824
-0.0193803
-0.0192143
-0.0190178
-0.0187568
-0.0184146
-0.0180736
-0.0177981
-0.0175496
-0.0172949
-0.0170552
-0.0168518
-0.0167039
-0.0165629
-0.01636
-0.0161343
-0.0159621
-0.0158174
-0.0156382
-0.0154303
-0.0152918
-0.0152867
-0.0153697
-0.0154332
-0.0153622
-0.0151283
-0.0148374
-0.0145761
-0.0143244
-0.0141031
-0.0139337
-0.0137697
-0.0136115
-0.013516
-0.0134417
-0.0132956
-0.013046
-0.0127907
-0.0125696
-0.0123744
-0.012183
-0.011982
-0.0117723
-0.0115647
-0.0113396
-0.0110985
-0.0108864
-0.0106807
-0.0104499
-0.0102161
-0.00996926
-0.00966691
-0.00935818
-0.00907815
-0.00878916
-0.00850583
-0.00821263
-0.00791977
-0.00761512
-0.00732221
-0.00700944