/*--------------------------------*- C++ -*----------------------------------*\
| =========                 |                                                 |
| \\      /  F ield         | OpenFOAM: The Open Source CFD Toolbox           |
|  \\    /   O peration     | Version:  2506                                  |
|   \\  /    A nd           | Website:  www.openfoam.com                      |
|    \\/     M anipulation  |                                                 |
\*---------------------------------------------------------------------------*/
FoamFile
{
    version     2.0;
    format      ascii;
    arch        "LSB;label=32;scalar=64";
    class       volScalarField;
    location    "8";
    object      p;
}
// * * * * * * * * * * * * * * * * * * * * * * * * * * * * * * * * * * * * * //

dimensions      [0 2 -2 0 0 0 0];

internalField   nonuniform List<scalar> 
9600
(
-5.49163e-11
-0.00218171
0.00186911
0.00566145
-0.00591123
-0.00726194
-0.00257375
-0.0051123
-0.00477701
-0.00417269
-0.00648788
-0.00733424
-0.00822444
-0.00896106
-0.00998305
-0.011737
-0.0128708
-0.0127399
-0.0134309
-0.0133126
3.7421e-06
-0.0021713
0.00183054
0.00561952
-0.00587321
-0.00726591
-0.00258463
-0.00508796
-0.00480086
-0.00416257
-0.00647358
-0.0073404
-0.00822208
-0.00898852
-0.00997233
-0.0117554
-0.0128492
-0.0127433
-0.0134207
-0.0133827
9.93772e-06
-0.00215891
0.00179
0.00556508
-0.00579381
-0.00728163
-0.00257913
-0.00504941
-0.00483206
-0.00415238
-0.00646147
-0.00736145
-0.00822269
-0.00902794
-0.00995239
-0.0117786
-0.0128041
-0.0127647
-0.0134153
-0.013476
1.55001e-05
-0.00214633
0.00174437
0.00550042
-0.0057247
-0.00727742
-0.00255688
-0.00501049
-0.00486965
-0.00415976
-0.00645479
-0.00739343
-0.00822802
-0.0090672
-0.00993684
-0.0117905
-0.0127591
-0.0127956
-0.0134199
-0.0135778
2.01537e-05
-0.00213303
0.00169168
0.00542017
-0.00567242
-0.00723917
-0.00252389
-0.00497506
-0.00491779
-0.00418287
-0.00644504
-0.00743367
-0.00823739
-0.00910684
-0.00992347
-0.0117937
-0.0127206
-0.0128232
-0.0134403
-0.0136756
2.42547e-05
-0.00211947
0.00163196
0.00532021
-0.00562476
-0.00716426
-0.00248948
-0.00494695
-0.00497962
-0.00421574
-0.00642887
-0.00748061
-0.00824949
-0.00914708
-0.00990788
-0.0117948
-0.0126827
-0.0128453
-0.0134787
-0.0137571
2.77768e-05
-0.00210646
0.00156638
0.0051995
-0.00557357
-0.00705927
-0.0024657
-0.00492812
-0.00505312
-0.00425314
-0.00640767
-0.00752965
-0.00826117
-0.00918683
-0.00989147
-0.0117948
-0.0126441
-0.0128643
-0.0135285
-0.0138223
3.04743e-05
-0.0020944
0.00149676
0.00505941
-0.00551651
-0.00693778
-0.00245984
-0.0049167
-0.00513464
-0.00429254
-0.00638296
-0.0075762
-0.00827019
-0.00922699
-0.00987586
-0.0117925
-0.0126096
-0.0128776
-0.0135843
-0.0138805
3.22148e-05
-0.00208315
0.00142471
0.00490271
-0.00545402
-0.00681239
-0.00247165
-0.00490982
-0.00522079
-0.00433281
-0.00635573
-0.00761927
-0.00827682
-0.00926853
-0.00986056
-0.0117879
-0.0125825
-0.0128823
-0.0136475
-0.0139393
3.31366e-05
-0.00207224
0.00135108
0.00473126
-0.00538807
-0.00668994
-0.00249573
-0.00490542
-0.00530792
-0.00437368
-0.00632712
-0.00766029
-0.0082824
-0.00931113
-0.00984566
-0.011781
-0.0125642
-0.0128788
-0.01372
-0.014001
3.3569e-05
-0.00206129
0.00127605
0.00455064
-0.00532099
-0.00657251
-0.00252585
-0.00490262
-0.00539663
-0.00441528
-0.0062984
-0.00770098
-0.00828819
-0.00935398
-0.00983214
-0.0117711
-0.0125557
-0.0128695
-0.0137999
-0.0140667
3.38378e-05
-0.0020502
0.00119928
0.00436124
-0.00525421
-0.00646005
-0.00255751
-0.00490106
-0.00548706
-0.00445786
-0.00627037
-0.00774284
-0.00829524
-0.00939599
-0.00982109
-0.0117567
-0.0125582
-0.0128562
-0.0138836
-0.0141394
3.41494e-05
-0.0020392
0.00112033
0.00416438
-0.00518808
-0.00635195
-0.00258819
-0.00490054
-0.00557948
-0.00450149
-0.00624351
-0.00778725
-0.00830415
-0.00943588
-0.00981368
-0.0117365
-0.0125721
-0.012841
-0.0139669
-0.0142222
3.45754e-05
-0.00202867
0.00103889
0.00396108
-0.00512235
-0.00624761
-0.00261689
-0.00490088
-0.00567416
-0.00454617
-0.00621807
-0.00783528
-0.00831528
-0.00947245
-0.00981115
-0.0117099
-0.0125972
-0.0128267
-0.0140454
-0.0143164
3.50768e-05
-0.00201901
0.000954804
0.00375218
-0.00505662
-0.00614665
-0.00264348
-0.00490188
-0.00577134
-0.00459195
-0.00619393
-0.00788748
-0.0083291
-0.00950459
-0.00981454
-0.0116768
-0.0126325
-0.0128165
-0.0141148
-0.0144217
3.55457e-05
-0.00201057
0.000868005
0.00353843
-0.00499068
-0.00604891
-0.00266829
-0.00490328
-0.00587116
-0.00463889
-0.00617084
-0.00794395
-0.00834606
-0.00953142
-0.00982452
-0.011638
-0.0126762
-0.0128135
-0.0141713
-0.0145367
3.58362e-05
-0.0020036
0.000778465
0.00332052
-0.00492453
-0.00595436
-0.00269181
-0.00490476
-0.00597366
-0.00468711
-0.00614859
-0.00800427
-0.00836651
-0.00955252
-0.00984132
-0.0115952
-0.0127261
-0.0128201
-0.0142122
-0.0146595
3.57796e-05
-0.00199825
0.00068615
0.00309912
-0.00485832
-0.00586298
-0.00271457
-0.00490588
-0.00607884
-0.00473676
-0.00612687
-0.0080678
-0.00839075
-0.00956781
-0.0098647
-0.0115496
-0.0127799
-0.0128381
-0.014236
-0.0147868
3.51947e-05
-0.0019946
0.000591007
0.00287483
-0.0047923
-0.00577475
-0.0027371
-0.00490616
-0.00618669
-0.00478813
-0.00610523
-0.00813393
-0.00841908
-0.0095775
-0.00989388
-0.0115025
-0.0128358
-0.0128689
-0.0142414
-0.014914
3.38844e-05
-0.00199266
0.000492955
0.00264825
-0.00472676
-0.00568966
-0.0027599
-0.00490515
-0.00629712
-0.00484167
-0.00608309
-0.00820216
-0.00845181
-0.00958186
-0.00992805
-0.0114551
-0.0128923
-0.0129136
-0.0142279
-0.0150355
3.16249e-05
-0.00199231
0.000391883
0.00241997
-0.00466208
-0.00560769
-0.00278348
-0.00490236
-0.00640991
-0.00489805
-0.00605974
-0.00827221
-0.00848912
-0.00958102
-0.00996715
-0.0114082
-0.0129473
-0.0129738
-0.0141963
-0.0151447
2.81623e-05
-0.00199341
0.00028766
0.00219046
-0.00459866
-0.00552875
-0.00280836
-0.00489751
-0.0065247
-0.00495807
-0.00603444
-0.00834395
-0.00853135
-0.00957488
-0.0100116
-0.0113624
-0.0129978
-0.0130513
-0.014149
-0.0152329
2.32124e-05
-0.00199574
0.000180117
0.00196019
-0.00453694
-0.00545277
-0.00283504
-0.00489036
-0.00664108
-0.00502269
-0.00600627
-0.00841719
-0.00857917
-0.00956295
-0.0100618
-0.0113185
-0.0130403
-0.0131487
-0.0140909
-0.0152893
1.6441e-05
-0.00199903
6.90462e-05
0.00172959
-0.00447732
-0.00537969
-0.00286406
-0.00488077
-0.00675834
-0.00509325
-0.0059742
-0.00849164
-0.00863359
-0.00954413
-0.0101183
-0.0112791
-0.0130698
-0.0132662
-0.0140309
-0.0153036
7.45787e-06
-0.00200293
-4.57821e-05
0.00149905
-0.00442019
-0.00530946
-0.00289595
-0.00486889
-0.00687529
-0.00517141
-0.00593741
-0.00856633
-0.00869624
-0.00951713
-0.0101807
-0.0112479
-0.0130813
-0.013401
-0.0139809
-0.0152682
-4.13678e-06
-0.0020072
-0.000164642
0.00126898
-0.00436598
-0.00524213
-0.00293104
-0.00485497
-0.00699055
-0.00525885
-0.0058957
-0.00863974
-0.00876906
-0.00948115
-0.010247
-0.01123
-0.0130705
-0.0135461
-0.0139555
-0.0151828
-1.88001e-05
-0.00201121
-0.000287774
0.00103973
-0.0043151
-0.00517779
-0.00296949
-0.00483939
-0.00710267
-0.00535689
-0.00584947
-0.00871011
-0.008854
-0.00943591
-0.0103139
-0.0112312
-0.0130361
-0.0136901
-0.0139686
-0.0150593
-3.70861e-05
-0.00201457
-0.000415367
0.00081158
-0.00426781
-0.00511665
-0.00301135
-0.00482283
-0.00721007
-0.00546643
-0.00579949
-0.0087752
-0.00895327
-0.00938198
-0.0103762
-0.0112566
-0.0129812
-0.0138189
-0.0140272
-0.0149197
-5.95757e-05
-0.00201681
-0.00054758
0.000584779
-0.00422432
-0.00505908
-0.00305645
-0.00480621
-0.0073113
-0.00558822
-0.00574716
-0.0088317
-0.00906877
-0.00932171
-0.0104279
-0.01131
-0.012914
-0.0139171
-0.0141268
-0.0147929
-8.68986e-05
-0.0020174
-0.000684526
0.000359478
-0.00418468
-0.00500559
-0.00310426
-0.00479052
-0.00740548
-0.00572284
-0.00569427
-0.00887586
-0.0092018
-0.00925884
-0.0104622
-0.0113928
-0.0128461
-0.0139713
-0.0142507
-0.0147095
-0.000119719
-0.00201582
-0.00082629
0.000135791
-0.00414872
-0.00495708
-0.00315412
-0.00477635
-0.00749215
-0.00587021
-0.00564274
-0.00890487
-0.00935321
-0.00919831
-0.010472
-0.0115022
-0.0127911
-0.0139753
-0.0143762
-0.0146891
-0.000158755
-0.00201155
-0.000972711
-8.64179e-05
-0.00411612
-0.00491465
-0.00320539
-0.00476375
-0.00757096
-0.00602952
-0.00559527
-0.00891652
-0.00952263
-0.00914683
-0.010451
-0.0116312
-0.0127624
-0.0139326
-0.014478
-0.0147296
-0.000204755
-0.0020041
-0.00112343
-0.000307576
-0.00408624
-0.00487935
-0.003258
-0.00475274
-0.0076416
-0.00619976
-0.00555496
-0.00890818
-0.00970825
-0.0091127
-0.0103951
-0.0117692
-0.0127713
-0.0138559
-0.0145338
-0.0148078
-0.00025844
-0.00199313
-0.00127786
-0.000528058
-0.00405819
-0.00485237
-0.00331244
-0.00474299
-0.00770407
-0.00638011
-0.00552433
-0.00887715
-0.00990743
-0.00910482
-0.0103027
-0.0119036
-0.0128249
-0.0137617
-0.014531
-0.0148937
-0.00032053
-0.00197844
-0.00143509
-0.000748484
-0.00403088
-0.00483461
-0.00336978
-0.00473347
-0.00775823
-0.00656998
-0.00550601
-0.00882188
-0.010116
-0.00913152
-0.0101757
-0.0120198
-0.0129259
-0.0136672
-0.0144685
-0.0149585
-0.000391682
-0.00195997
-0.00159395
-0.000969809
-0.00400305
-0.00482604
-0.00343195
-0.00472334
-0.00780309
-0.00676854
-0.0055038
-0.00874224
-0.0103273
-0.00920045
-0.010021
-0.0121012
-0.0130721
-0.0135912
-0.0143523
-0.0149791
-0.00047251
-0.0019381
-0.00175251
-0.00119321
-0.00397408
-0.00482601
-0.00350144
-0.00471236
-0.00783721
-0.00697468
-0.0055225
-0.00863891
-0.0105317
-0.00931815
-0.00985142
-0.0121299
-0.0132546
-0.0135549
-0.0141935
-0.0149395
-0.000563482
-0.00191383
-0.00190801
-0.00141968
-0.00394438
-0.00483321
-0.00358087
-0.00470078
-0.00785852
-0.00718692
-0.00556704
-0.00851367
-0.0107185
-0.00948783
-0.00968476
-0.0120912
-0.0134547
-0.0135787
-0.0140104
-0.0148289
-0.000664772
-0.00188883
-0.00205699
-0.00164977
-0.00391587
-0.00484494
-0.00367295
-0.00469021
-0.0078643
-0.00740297
-0.00564189
-0.00837049
-0.0108767
-0.00970715
-0.00954094
-0.0119794
-0.0136469
-0.0136744
-0.01383
-0.0146433
-0.000776443
-0.00186526
-0.00219495
-0.00188426
-0.00389203
-0.00485695
-0.00377975
-0.00468323
-0.00785171
-0.00761934
-0.00575145
-0.00821615
-0.0109953
-0.00996795
-0.00944014
-0.0118008
-0.0138022
-0.0138381
-0.013686
-0.0143931
-0.00089831
-0.00184557
-0.00231727
-0.00212346
-0.00387749
-0.00486517
-0.00390099
-0.00468329
-0.00781927
-0.00783125
-0.00589951
-0.00806042
-0.0110647
-0.0102567
-0.0094001
-0.0115728
-0.0138926
-0.01405
-0.0136105
-0.0141063
-0.00102978
-0.00183237
-0.0024205
-0.00236661
-0.00387751
-0.00486625
-0.00403399
-0.00469564
-0.00776761
-0.00803241
-0.00608752
-0.00791472
-0.0110788
-0.0105563
-0.00943319
-0.0113193
-0.0138976
-0.0142805
-0.0136216
-0.0138212
-0.00116996
-0.0018284
-0.00250309
-0.00261153
-0.00389723
-0.00485819
-0.00417489
-0.00472589
-0.00769983
-0.00821565
-0.00631226
-0.00779043
-0.0110377
-0.0108494
-0.00954363
-0.0110665
-0.0138074
-0.0144978
-0.0137198
-0.0135793
-0.00131755
-0.00183609
-0.00256481
-0.00285378
-0.00394119
-0.00484224
-0.00431776
-0.00477822
-0.0076209
-0.00837407
-0.00656612
-0.0076977
-0.0109479
-0.0111203
-0.00972547
-0.0108404
-0.0136258
-0.0146693
-0.0138914
-0.0134143
-0.00147098
-0.00185742
-0.00260772
-0.00308739
-0.00401261
-0.00482182
-0.00445485
-0.00485506
-0.00753825
-0.00850239
-0.00683972
-0.00764407
-0.0108194
-0.0113549
-0.0099651
-0.0106656
-0.0133703
-0.0147648
-0.0141103
-0.0133457
-0.00162838
-0.00189446
-0.00263541
-0.00330618
-0.00411262
-0.00480251
-0.00457836
-0.00495515
-0.00746235
-0.00859996
-0.00712132
-0.00763285
-0.0106637
-0.0115433
-0.0102451
-0.0105589
-0.013068
-0.0147621
-0.0143408
-0.0133803
-0.00178745
-0.00194916
-0.0026527
-0.00350349
-0.00424009
-0.00479281
-0.00468228
-0.00507354
-0.00740463
-0.00867086
-0.00739793
-0.00766279
-0.0104929
-0.0116792
-0.0105463
-0.0105262
-0.0127489
-0.0146574
-0.0145446
-0.0135087
-0.001946
-0.00202296
-0.00266547
-0.00367264
-0.00439194
-0.0048037
-0.00476507
-0.00520107
-0.00737132
-0.00872091
-0.00766032
-0.00772964
-0.0103178
-0.0117588
-0.0108502
-0.0105661
-0.0124441
-0.0144645
-0.014687
-0.0137013
-0.00210193
-0.0021163
-0.00268049
-0.00380904
-0.00456268
-0.00484582
-0.00483094
-0.00532461
-0.007361
-0.00875902
-0.00790564
-0.00782689
-0.0101476
-0.0117818
-0.0111396
-0.0106729
-0.0121797
-0.0142075
-0.0147437
-0.0139144
-0.0022534
-0.00222892
-0.00270453
-0.00391151
-0.0047438
-0.00492564
-0.00488727
-0.00543345
-0.00736851
-0.00879381
-0.00813429
-0.00794668
-0.00998935
-0.0117524
-0.0113995
-0.0108345
-0.0119735
-0.0139142
-0.0147088
-0.0141037
-0.00239939
-0.00235953
-0.00274362
-0.00398172
-0.00492417
-0.00504503
-0.00494623
-0.00552286
-0.00738538
-0.0088294
-0.00834866
-0.00808414
-0.00984806
-0.0116777
-0.0116178
-0.0110339
-0.0118342
-0.0136123
-0.0145936
-0.0142347
-0.00253927
-0.002505
-0.00280287
-0.00402429
-0.005091
-0.00520088
-0.00502356
-0.00559479
-0.00739957
-0.00886338
-0.00855154
-0.00823751
-0.00972877
-0.011565
-0.0117856
-0.0112539
-0.0117628
-0.0133242
-0.0144189
-0.0142917
-0.00267344
-0.00266058
-0.00288501
-0.00404827
-0.00523375
-0.00538687
-0.00513429
-0.00565607
-0.00740043
-0.00889077
-0.00874304
-0.00840559
-0.00963678
-0.011424
-0.0118959
-0.0114768
-0.0117556
-0.0130656
-0.0142043
-0.0142778
-0.00280272
-0.00282159
-0.00299122
-0.00406482
-0.00534541
-0.00559215
-0.00528739
-0.00571804
-0.00738347
-0.00890395
-0.00892055
-0.00858633
-0.00957661
-0.0112681
-0.0119471
-0.0116835
-0.0118046
-0.0128497
-0.0139652
-0.0142061
-0.00292789
-0.00298393
-0.00312122
-0.00408541
-0.00542422
-0.00580168
-0.00548264
-0.00579567
-0.00735105
-0.00889428
-0.00907843
-0.00877585
-0.0095507
-0.0111108
-0.0119457
-0.0118561
-0.0118941
-0.0126892
-0.0137172
-0.0140872
-0.00305059
-0.00314482
-0.00327277
-0.00411972
-0.00547279
-0.00599976
-0.00571463
-0.00590146
-0.00730951
-0.00885835
-0.00920943
-0.00896782
-0.00955861
-0.0109613
-0.0119017
-0.011985
-0.0120018
-0.0125889
-0.0134801
-0.0139277
-0.00317099
-0.00330321
-0.0034423
-0.00417811
-0.00550135
-0.00617318
-0.00596887
-0.00604185
-0.00727069
-0.00879976
-0.00930809
-0.00915408
-0.0095981
-0.0108271
-0.0118242
-0.0120709
-0.0121098
-0.0125405
-0.0132742
-0.0137388
-0.00328952
-0.00344616
-0.00362658
-0.00427019
-0.00552538
-0.00631481
-0.00622423
-0.00621565
-0.00724962
-0.00872398
-0.00937232
-0.00932531
-0.00966365
-0.010717
-0.0117222
-0.0121144
-0.0122068
-0.0125278
-0.013111
-0.0135411
-0.00341271
-0.00359268
-0.00381356
-0.00438416
-0.00555021
-0.00642488
-0.00646436
-0.00641573
-0.00725881
-0.00864136
-0.00940349
-0.00947447
-0.00974631
-0.0106359
-0.0116072
-0.0121143
-0.0122837
-0.0125373
-0.0129904
-0.0133566
-0.00354061
-0.00373503
-0.00400251
-0.00451845
-0.00558391
-0.00650712
-0.00668049
-0.00663295
-0.00730201
-0.00856312
-0.00940491
-0.00959757
-0.00983723
-0.0105817
-0.011492
-0.0120763
-0.0123326
-0.0125596
-0.012906
-0.0131982
-0.00367387
-0.00387702
-0.00418652
-0.00466763
-0.00563225
-0.00657047
-0.00686913
-0.00685548
-0.00737778
-0.00849928
-0.00938351
-0.00969381
-0.00993154
-0.0105515
-0.0113834
-0.0120098
-0.0123466
-0.0125827
-0.0128503
-0.013068
-0.00381411
-0.00402005
-0.00436351
-0.00482664
-0.00569813
-0.00662536
-0.00703083
-0.00707159
-0.00748205
-0.00845653
-0.00934573
-0.00976034
-0.0100218
-0.0105419
-0.0112834
-0.0119218
-0.0123227
-0.0125908
-0.0128131
-0.0129621
-0.00396017
-0.00416528
-0.00453365
-0.00499261
-0.0057829
-0.00667767
-0.00716654
-0.00727305
-0.00760539
-0.00843608
-0.0092971
-0.00979444
-0.0100984
-0.0105514
-0.0112005
-0.0118234
-0.012267
-0.0125732
-0.0127819
-0.0128745
-0.00411068
-0.00431077
-0.00470037
-0.00516282
-0.00588377
-0.00673146
-0.00727925
-0.00745605
-0.00773969
-0.00843809
-0.00924537
-0.00980021
-0.0101543
-0.0105719
-0.0111417
-0.0117297
-0.0121924
-0.0125287
-0.0127463
-0.0128038
-0.00426626
-0.00446239
-0.00486179
-0.0053318
-0.00599816
-0.00679234
-0.00737508
-0.00761819
-0.00787834
-0.00846235
-0.00919764
-0.00978399
-0.010185
-0.0105861
-0.0110957
-0.0116437
-0.0121077
-0.012462
-0.0126976
-0.0127466
-0.00442614
-0.00461489
-0.00502043
-0.00549954
-0.00612436
-0.00686261
-0.00745785
-0.00775702
-0.00801295
-0.00850519
-0.00915982
-0.00975178
-0.0101926
-0.0105894
-0.0110509
-0.0115601
-0.0120159
-0.0123761
-0.0126261
-0.0126855
-0.00459017
-0.00477484
-0.00517666
-0.00566332
-0.00625878
-0.00694333
-0.00753279
-0.0078742
-0.00813699
-0.0085592
-0.00913419
-0.00970838
-0.0101762
-0.0105815
-0.0110058
-0.0114764
-0.0119213
-0.012279
-0.0125328
-0.0126073
-0.00475681
-0.00493571
-0.00533296
-0.00582394
-0.00639851
-0.00703409
-0.00760437
-0.00797356
-0.00824768
-0.00861768
-0.00912052
-0.00966097
-0.0101343
-0.0105525
-0.0109562
-0.0113868
-0.0118184
-0.012175
-0.012426
-0.0125109
-0.00492694
-0.00510134
-0.00548977
-0.0059799
-0.0065409
-0.00713508
-0.00767697
-0.00805852
-0.00834361
-0.00867409
-0.00911219
-0.00961344
-0.0100738
-0.010494
-0.0108927
-0.0112889
-0.011698
-0.0120553
-0.0123049
-0.0123963
-0.00510082
-0.00527471
-0.00564746
-0.00613166
-0.0066836
-0.0072446
-0.00775527
-0.00813406
-0.0084239
-0.00872554
-0.00910459
-0.00956089
-0.0100005
-0.0104067
-0.0108036
-0.0111821
-0.0115616
-0.0119122
-0.0121617
-0.0122577
-0.00527523
-0.00544404
-0.00580924
-0.00628345
-0.00682554
-0.00735895
-0.00783935
-0.00820769
-0.00849243
-0.00877046
-0.00910024
-0.00950181
-0.00991134
-0.0102924
-0.0106757
-0.0110497
-0.011405
-0.0117436
-0.0119935
-0.0120921
-0.0054526
-0.00561953
-0.00597486
-0.00643384
-0.00696415
-0.00747619
-0.00792876
-0.00828275
-0.00855567
-0.00880724
-0.00909405
-0.00943401
-0.00979881
-0.0101485
-0.0105028
-0.0108713
-0.0112127
-0.0115381
-0.0117934
-0.0119005
-0.0056358
-0.00579921
-0.00614351
-0.00658484
-0.0071013
-0.00759439
-0.00802332
-0.00836157
-0.00862232
-0.00884615
-0.00908521
-0.0093552
-0.00964966
-0.0099528
-0.0102642
-0.0106138
-0.0109558
-0.011279
-0.0115438
-0.0116719
-0.00581882
-0.00597833
-0.0063173
-0.00674237
-0.00724074
-0.00771168
-0.00811917
-0.00844869
-0.00870705
-0.00891483
-0.00909895
-0.00927144
-0.00945672
-0.00966734
-0.00989028
-0.0101594
-0.010457
-0.0107646
-0.0110779
-0.0113288
-0.00599966
-0.00615967
-0.00649492
-0.00690477
-0.00738219
-0.00783187
-0.00821915
-0.00853596
-0.00881417
-0.00907995
-0.00927654
-0.00935321
-0.00939794
-0.00948834
-0.00960046
-0.00970483
-0.00975324
-0.00971026
-0.00960138
-0.00951191
-0.00619364
-0.00633287
-0.00664472
-0.00702488
-0.00748718
-0.00795484
-0.00834607
-0.00858743
-0.00872237
-0.00885293
-0.00900495
-0.00914943
-0.00927512
-0.00937824
-0.00943206
-0.00943994
-0.00940554
-0.00935717
-0.00934477
-0.0094395
-0.00646934
-0.00662421
-0.0068431
-0.00711532
-0.00748937
-0.00787494
-0.00821508
-0.00847212
-0.0086624
-0.0088414
-0.00903223
-0.00920129
-0.00934561
-0.00945847
-0.00950253
-0.00948804
-0.00940902
-0.00927761
-0.00912511
-0.00904255
-0.00655787
-0.00665372
-0.0068862
-0.00716888
-0.00751683
-0.00787439
-0.0082019
-0.00846845
-0.00867502
-0.00884966
-0.00901711
-0.0091382
-0.00920989
-0.00929138
-0.00938521
-0.0095348
-0.00979206
-0.0101596
-0.0105889
-0.0109907
-0.00679303
-0.00691369
-0.00706153
-0.00724277
-0.00752454
-0.00785561
-0.00818405
-0.00845566
-0.00868285
-0.00887317
-0.00903579
-0.00918012
-0.00926163
-0.00930849
-0.0093133
-0.00924677
-0.00911965
-0.0089618
-0.00883847
-0.00883143
-0.00691558
-0.00702567
-0.00713843
-0.00727864
-0.00752993
-0.00784489
-0.00817442
-0.00845205
-0.00868924
-0.00890033
-0.00906573
-0.00920659
-0.00928455
-0.00929869
-0.00927632
-0.00921781
-0.00915664
-0.00913282
-0.00918838
-0.0093772
-0.012962
-0.0151604
-0.0201985
-0.0239533
-0.0241463
-0.0224741
-0.0205931
-0.018984
-0.0178236
-0.0171757
-0.0169227
-0.0168489
-0.0167464
-0.0164618
-0.0159549
-0.0154121
-0.0150653
-0.0148749
-0.0146898
-0.0144947
-0.0142519
-0.0139084
-0.0135274
-0.0131695
-0.0128287
-0.0125004
-0.0122112
-0.011972
-0.0117409
-0.0114921
-0.0112509
-0.0110396
-0.0108666
-0.0107137
-0.01056
-0.0104141
-0.0103066
-0.0102096
-0.0100668
-0.00986846
-0.00967794
-0.00950328
-0.00931395
-0.00909694
-0.00886573
-0.00864536
-0.00841023
-0.00812526
-0.00786391
-0.00771631
-0.00763383
-0.00750501
-0.00729239
-0.00701419
-0.00670114
-0.00639618
-0.00612224
-0.00588068
-0.00565902
-0.0054415
-0.00521215
-0.00495642
-0.00467698
-0.00437446
-0.00409732
-0.00380713
-0.00349254
-0.00317765
-0.00287936
-0.00256924
-0.0022429
-0.00192278
-0.00157277
-0.00120103
-0.00080819
-0.000429466
-4.06125e-05
0.000346607
0.000762357
0.00115547
0.00156031
0.00195952
0.00239731
0.00286432
0.00331867
0.00376385
0.00418086
0.00465214
0.0051122
0.00562306
0.0061178
0.00661885
0.00715222
0.00766707
0.00822119
0.00881049
0.009381
0.0100162
0.0107048
0.0113323
-0.0131318
-0.0152235
-0.0200922
-0.0238145
-0.0240705
-0.0224379
-0.020569
-0.0189653
-0.0178086
-0.0171633
-0.0169125
-0.016841
-0.0167406
-0.0164577
-0.0159516
-0.0154088
-0.0150622
-0.0148721
-0.0146872
-0.0144924
-0.01425
-0.0139065
-0.0135256
-0.0131678
-0.0128271
-0.0124988
-0.0122097
-0.0119706
-0.0117395
-0.0114908
-0.0112497
-0.0110384
-0.0108653
-0.0107125
-0.0105589
-0.010413
-0.0103055
-0.0102087
-0.0100659
-0.00986761
-0.00967709
-0.00950248
-0.00931322
-0.00909626
-0.00886509
-0.00864476
-0.00840969
-0.00812475
-0.00786335
-0.00771575
-0.00763334
-0.00750461
-0.00729203
-0.00701383
-0.00670078
-0.00639583
-0.0061219
-0.00588035
-0.0056587
-0.0054412
-0.00521188
-0.00495616
-0.00467673
-0.00437422
-0.00409708
-0.00380691
-0.00349233
-0.00317743
-0.00287915
-0.00256904
-0.00224271
-0.00192259
-0.00157259
-0.00120086
-0.000808018
-0.000429295
-4.04489e-05
0.000346763
0.000762511
0.00115562
0.00156046
0.00195966
0.00239744
0.00286444
0.0033188
0.00376398
0.00418098
0.00465225
0.0051123
0.00562316
0.0061179
0.00661894
0.00715232
0.00766716
0.00822127
0.00881059
0.0093811
0.0100163
0.0107049
0.0113325
-0.013415
-0.0153389
-0.0198999
-0.0235488
-0.023933
-0.022389
-0.0205461
-0.0189478
-0.0177937
-0.0171507
-0.0169013
-0.0168307
-0.0167317
-0.0164509
-0.0159467
-0.015405
-0.0150591
-0.0148695
-0.0146848
-0.0144903
-0.0142482
-0.0139049
-0.0135239
-0.0131661
-0.0128255
-0.0124973
-0.0122082
-0.0119693
-0.0117384
-0.0114897
-0.0112485
-0.0110373
-0.0108643
-0.0107115
-0.010558
-0.0104121
-0.0103046
-0.0102079
-0.0100652
-0.00986687
-0.00967635
-0.00950179
-0.00931257
-0.00909566
-0.00886451
-0.00864423
-0.00840922
-0.00812427
-0.00786279
-0.00771522
-0.00763294
-0.00750431
-0.00729175
-0.00701353
-0.00670046
-0.00639551
-0.00612159
-0.00588005
-0.00565842
-0.00544095
-0.00521166
-0.00495594
-0.00467653
-0.004374
-0.00409687
-0.00380673
-0.00349214
-0.00317724
-0.00287897
-0.00256888
-0.00224254
-0.00192244
-0.00157244
-0.00120071
-0.000807866
-0.000429147
-4.03074e-05
0.000346896
0.000762647
0.00115576
0.00156058
0.00195977
0.00239754
0.00286456
0.00331891
0.00376409
0.00418107
0.00465234
0.00511239
0.00562324
0.00611799
0.00661902
0.0071524
0.00766724
0.00822134
0.00881066
0.00938118
0.0100164
0.0107051
0.0113327
-0.0136995
-0.0154391
-0.019639
-0.0231954
-0.0237366
-0.0223196
-0.0205152
-0.0189246
-0.0177749
-0.0171361
-0.0168885
-0.0168169
-0.0167169
-0.0164375
-0.0159369
-0.0153988
-0.0150549
-0.0148658
-0.0146812
-0.0144873
-0.014246
-0.0139031
-0.0135221
-0.0131643
-0.0128237
-0.0124957
-0.0122067
-0.0119679
-0.0117371
-0.0114885
-0.0112474
-0.0110361
-0.0108631
-0.0107105
-0.010557
-0.0104112
-0.0103037
-0.0102071
-0.0100644
-0.00986613
-0.00967561
-0.00950107
-0.00931187
-0.00909501
-0.0088639
-0.00864367
-0.00840871
-0.00812373
-0.00786216
-0.00771464
-0.00763252
-0.00750402
-0.00729149
-0.00701323
-0.0067001
-0.00639515
-0.00612125
-0.00587973
-0.00565812
-0.0054407
-0.00521144
-0.00495572
-0.00467631
-0.00437378
-0.00409666
-0.00380655
-0.00349195
-0.00317705
-0.00287879
-0.00256871
-0.00224236
-0.00192228
-0.0015723
-0.00120057
-0.000807711
-0.000428995
-4.01647e-05
0.000347029
0.000762787
0.0011559
0.00156071
0.00195989
0.00239765
0.00286468
0.00331904
0.0037642
0.00418117
0.00465243
0.00511248
0.00562333
0.00611808
0.00661909
0.00715248
0.00766731
0.00822141
0.00881074
0.00938125
0.0100164
0.0107052
0.011333
-0.0139559
-0.0155184
-0.0193587
-0.0228165
-0.023517
-0.0222404
-0.0204802
-0.018897
-0.017752
-0.017119
-0.0168737
-0.0167993
-0.0166952
-0.0164161
-0.0159211
-0.0153893
-0.0150486
-0.0148598
-0.014675
-0.014482
-0.0142424
-0.0139007
-0.01352
-0.013162
-0.0128215
-0.0124938
-0.0122052
-0.0119664
-0.0117357
-0.0114874
-0.0112463
-0.0110349
-0.0108617
-0.0107092
-0.010556
-0.0104103
-0.0103028
-0.010206
-0.0100635
-0.00986535
-0.00967482
-0.00950023
-0.00931102
-0.00909425
-0.0088632
-0.008643
-0.00840807
-0.00812305
-0.00786142
-0.00771395
-0.00763202
-0.00750369
-0.00729122
-0.00701288
-0.00669968
-0.00639473
-0.00612087
-0.00587935
-0.00565777
-0.00544041
-0.00521119
-0.00495548
-0.00467606
-0.00437352
-0.00409643
-0.00380635
-0.00349174
-0.00317684
-0.0028786
-0.00256853
-0.00224218
-0.00192212
-0.00157215
-0.00120041
-0.000807543
-0.000428832
-4.00122e-05
0.00034717
0.000762939
0.00115605
0.00156084
0.00196001
0.00239775
0.00286481
0.00331917
0.00376433
0.00418127
0.00465253
0.00511258
0.00562342
0.00611819
0.00661917
0.00715257
0.00766739
0.00822147
0.00881081
0.00938132
0.0100165
0.0107053
0.0113335
-0.0141827
-0.0156036
-0.0190921
-0.0224345
-0.0232852
-0.0221557
-0.0204439
-0.0188674
-0.0177262
-0.0170997
-0.0168572
-0.0167788
-0.0166683
-0.0163882
-0.0159002
-0.0153771
-0.0150404
-0.0148511
-0.0146655
-0.0144735
-0.0142364
-0.013897
-0.0135172
-0.0131592
-0.0128188
-0.0124918
-0.0122036
-0.0119648
-0.0117343
-0.0114863
-0.0112455
-0.0110338
-0.0108602
-0.0107076
-0.0105549
-0.0104093
-0.0103016
-0.0102047
-0.0100624
-0.00986449
-0.009674
-0.00949923
-0.00930998
-0.00909337
-0.00886243
-0.0086422
-0.00840722
-0.0081222
-0.00786053
-0.00771312
-0.00763139
-0.00750329
-0.0072909
-0.00701246
-0.00669915
-0.00639422
-0.00612041
-0.00587891
-0.00565736
-0.00544007
-0.00521091
-0.00495518
-0.00467577
-0.00437322
-0.00409617
-0.00380611
-0.0034915
-0.0031766
-0.00287838
-0.00256834
-0.00224198
-0.00192196
-0.00157199
-0.00120024
-0.000807363
-0.000428658
-3.98495e-05
0.000347319
0.000763103
0.00115621
0.00156099
0.00196014
0.00239787
0.00286495
0.00331932
0.00376448
0.00418138
0.00465263
0.00511269
0.00562352
0.0061183
0.00661926
0.00715266
0.00766747
0.00822153
0.00881087
0.00938138
0.0100165
0.0107054
0.011334
-0.0143902
-0.015709
-0.0188465
-0.0220495
-0.0230388
-0.0220637
-0.0204066
-0.0188365
-0.017698
-0.0170781
-0.016839
-0.0167566
-0.0166387
-0.0163569
-0.0158765
-0.0153636
-0.0150313
-0.0148405
-0.0146529
-0.0144615
-0.0142275
-0.0138915
-0.0135135
-0.0131556
-0.0128154
-0.0124894
-0.0122019
-0.0119632
-0.0117329
-0.0114856
-0.0112452
-0.0110329
-0.0108585
-0.0107058
-0.0105537
-0.0104085
-0.0103003
-0.0102029
-0.0100608
-0.00986344
-0.00967304
-0.00949796
-0.00930863
-0.00909236
-0.00886166
-0.00864131
-0.00840617
-0.00812116
-0.00785951
-0.00771208
-0.00763053
-0.00750275
-0.00729051
-0.00701195
-0.00669851
-0.00639362
-0.00611988
-0.00587836
-0.00565684
-0.00543965
-0.00521056
-0.00495481
-0.0046754
-0.00437287
-0.00409586
-0.00380583
-0.00349122
-0.00317634
-0.00287814
-0.00256812
-0.00224177
-0.00192178
-0.00157182
-0.00120006
-0.000807169
-0.00042847
-3.96763e-05
0.000347478
0.000763279
0.00115639
0.00156115
0.00196028
0.00239799
0.00286511
0.00331949
0.00376464
0.0041815
0.00465275
0.0051128
0.00562363
0.00611843
0.00661935
0.00715276
0.00766756
0.00822159
0.00881091
0.00938144
0.0100165
0.0107054
0.0113347
-0.0145821
-0.0158282
-0.0186162
-0.0216579
-0.0227754
-0.0219631
-0.0203684
-0.0188051
-0.0176674
-0.0170538
-0.016819
-0.0167331
-0.0166077
-0.0163239
-0.0158513
-0.0153494
-0.0150217
-0.014829
-0.0146384
-0.0144469
-0.014216
-0.0138841
-0.0135084
-0.0131512
-0.0128116
-0.0124868
-0.0122001
-0.0119613
-0.0117313
-0.0114852
-0.0112455
-0.0110327
-0.010857
-0.0107039
-0.0105525
-0.0104078
-0.010299
-0.0102006
-0.0100586
-0.00986208
-0.00967181
-0.00949625
-0.00930682
-0.00909112
-0.00886088
-0.00864039
-0.00840501
-0.00812006
-0.00785841
-0.00771082
-0.00762936
-0.00750198
-0.00729
-0.00701132
-0.00669776
-0.00639294
-0.00611925
-0.00587769
-0.0056562
-0.00543913
-0.0052101
-0.00495433
-0.00467493
-0.00437243
-0.00409547
-0.00380546
-0.00349087
-0.00317602
-0.00287785
-0.00256786
-0.00224153
-0.00192158
-0.00157162
-0.00119986
-0.000806956
-0.000428267
-3.949e-05
0.000347647
0.000763466
0.00115658
0.00156131
0.00196044
0.00239813
0.00286529
0.00331967
0.00376481
0.00418163
0.00465289
0.00511294
0.00562376
0.00611857
0.00661946
0.00715288
0.00766765
0.00822166
0.00881093
0.0093815
0.0100164
0.0107052
0.0113354
-0.0147525
-0.0159505
-0.0184005
-0.0212621
-0.022495
-0.0218524
-0.0203287
-0.0187735
-0.0176344
-0.0170265
-0.016797
-0.0167085
-0.0165757
-0.0162895
-0.0158248
-0.0153342
-0.0150117
-0.0148169
-0.0146229
-0.0144308
-0.0142026
-0.0138749
-0.0135021
-0.013146
-0.0128074
-0.0124841
-0.0121982
-0.0119591
-0.0117295
-0.0114849
-0.0112464
-0.011033
-0.0108557
-0.010702
-0.0105514
-0.0104074
-0.0102976
-0.0101979
-0.010056
-0.00986034
-0.0096702
-0.00949397
-0.00930437
-0.00908946
-0.00885997
-0.00863944
-0.00840383
-0.00811911
-0.00785748
-0.00770945
-0.00762786
-0.00750091
-0.00728928
-0.00701051
-0.00669688
-0.00639221
-0.00611858
-0.00587691
-0.00565541
-0.00543849
-0.00520952
-0.0049537
-0.00467432
-0.00437189
-0.00409498
-0.00380498
-0.00349042
-0.00317562
-0.00287747
-0.00256754
-0.00224125
-0.00192135
-0.0015714
-0.00119964
-0.000806719
-0.00042804
-3.92848e-05
0.00034783
0.000763666
0.00115677
0.00156148
0.0019606
0.00239828
0.00286548
0.00331988
0.003765
0.00418178
0.00465304
0.00511309
0.0056239
0.00611872
0.00661959
0.007153
0.00766776
0.00822172
0.00881091
0.00938157
0.0100162
0.0107049
0.0113363
-0.0148944
-0.0160711
-0.018205
-0.0208664
-0.0221964
-0.0217287
-0.0202863
-0.0187418
-0.0175995
-0.0169961
-0.0167727
-0.0166828
-0.0165428
-0.0162539
-0.0157968
-0.015318
-0.0150012
-0.0148045
-0.0146069
-0.0144138
-0.014188
-0.0138643
-0.0134946
-0.01314
-0.0128029
-0.0124813
-0.0121962
-0.0119567
-0.0117274
-0.0114846
-0.0112476
-0.0110339
-0.0108549
-0.0107003
-0.0105505
-0.0104072