/*--------------------------------*- C++ -*----------------------------------*\
| =========                 |                                                 |
| \\      /  F ield         | OpenFOAM: The Open Source CFD Toolbox           |
|  \\    /   O peration     | Version:  2506                                  |
|   \\  /    A nd           | Website:  www.openfoam.com                      |
|    \\/     M anipulation  |                                                 |
\*---------------------------------------------------------------------------*/
FoamFile
{
    version     2.0;
    format      ascii;
    arch        "LSB;label=32;scalar=64";
    class       surfaceScalarField;
    location    "9.55";
    object      phi;
}
// * * * * * * * * * * * * * * * * * * * * * * * * * * * * * * * * * * * * * //

dimensions      [0 3 -1 0 0 0 0];

oriented        oriented;

internalField   nonuniform List<scalar> 
19000
(
1.13609e-06
-1.98597e-07
1.20656e-06
-4.23132e-07
1.27476e-06
-1.4781e-06
1.25378e-06
8.57332e-07
1.15667e-06
1.36764e-06
1.12381e-06
2.32441e-07
1.16158e-06
-2.01111e-06
1.18103e-06
-1.7346e-06
1.23806e-06
-1.58307e-06
1.22655e-06
-3.99734e-07
1.23098e-06
-6.49899e-08
1.23482e-06
1.50599e-07
1.20536e-06
6.79382e-08
1.20012e-06
2.62377e-07
1.19356e-06
-4.33699e-08
1.19849e-06
-4.74343e-08
1.21091e-06
-2.18366e-07
1.20522e-06
-1.46682e-07
1.21018e-06
-1.43851e-07
-1.0318e-07
1.1704e-06
1.18741e-06
-1.61745e-07
1.25945e-06
-4.95174e-07
1.33535e-06
-1.55401e-06
1.33289e-06
8.59801e-07
1.21951e-06
1.48102e-06
1.21077e-06
2.41183e-07
1.22882e-06
-2.02917e-06
1.2279e-06
-1.73368e-06
1.29497e-06
-1.65014e-06
1.29103e-06
-3.95788e-07
1.29271e-06
-6.66753e-08
1.30793e-06
1.35382e-07
1.26957e-06
1.06299e-07
1.27723e-06
2.54716e-07
1.25884e-06
-2.49805e-08
1.27632e-06
-6.4917e-08
1.2707e-06
-2.12738e-07
1.28504e-06
-1.61025e-07
1.26356e-06
-1.22369e-07
-1.0094e-07
1.26132e-06
1.23844e-06
-1.17406e-07
1.30699e-06
-5.63722e-07
1.39163e-06
-1.63865e-06
1.41944e-06
8.3199e-07
1.31094e-06
1.58952e-06
1.29876e-06
2.53357e-07
1.28711e-06
-2.01752e-06
1.27891e-06
-1.72547e-06
1.343e-06
-1.71424e-06
1.35811e-06
-4.10891e-07
1.35698e-06
-6.55484e-08
1.38389e-06
1.08472e-07
1.34493e-06
1.45259e-07
1.35206e-06
2.47588e-07
1.33369e-06
-6.61639e-09
1.34457e-06
-7.57972e-08
1.33795e-06
-2.0611e-07
1.34658e-06
-1.69661e-07
1.33293e-06
-1.08719e-07
-8.64962e-08
1.31849e-06
1.29142e-06
-6.47195e-08
1.34974e-06
-6.22049e-07
1.43935e-06
-1.72825e-06
1.50157e-06
7.69773e-07
1.41718e-06
1.67391e-06
1.39242e-06
2.78117e-07
1.34674e-06
-1.97183e-06
1.3318e-06
-1.71054e-06
1.3835e-06
-1.76593e-06
1.41744e-06
-4.44833e-07
1.42309e-06
-7.1199e-08
1.45355e-06
7.80163e-08
1.42807e-06
1.70736e-07
1.42727e-06
2.48388e-07
1.41302e-06
7.63211e-09
1.41337e-06
-7.61483e-08
1.4058e-06
-1.98542e-07
1.40905e-06
-1.72907e-07
1.39962e-06
-9.92899e-08
-7.12594e-08
1.38438e-06
1.35e-06
-6.36631e-09
1.39092e-06
-6.62971e-07
1.48093e-06
-1.81826e-06
1.57371e-06
6.76997e-07
1.52697e-06
1.72065e-06
1.4869e-06
3.18182e-07
1.4115e-06
-1.89643e-06
1.38785e-06
-1.68689e-06
1.42311e-06
-1.80119e-06
1.4705e-06
-4.92224e-07
1.49092e-06
-9.16137e-08
1.52197e-06
4.69649e-08
1.51299e-06
1.7971e-07
1.50832e-06
2.53059e-07
1.49391e-06
2.20422e-08
1.48676e-06
-6.89902e-08
1.47407e-06
-1.85857e-07
1.47308e-06
-1.71919e-07
1.46469e-06
-9.08988e-08
-5.80285e-08
1.45146e-06
1.41775e-06
5.15612e-08
1.43631e-06
-6.81535e-07
1.52185e-06
-1.90379e-06
1.63793e-06
5.60918e-07
1.63239e-06
1.72618e-06
1.58027e-06
3.70306e-07
1.48412e-06
-1.80029e-06
1.44964e-06
-1.65241e-06
1.46895e-06
-1.8205e-06
1.5245e-06
-5.47777e-07
1.56082e-06
-1.27936e-07
1.59446e-06
1.33318e-08
1.59775e-06
1.7642e-07
1.59389e-06
2.56913e-07
1.57685e-06
3.90879e-08
1.56337e-06
-5.55076e-08
1.54435e-06
-1.66841e-07
1.53785e-06
-1.6542e-07
1.52926e-06
-8.23092e-08
-4.6185e-08
1.51742e-06
1.49609e-06
1.01693e-07
1.49143e-06
-6.76877e-07
1.56757e-06
-1.97994e-06
1.6991e-06
4.29389e-07
1.72906e-06
1.69622e-06
1.6706e-06
4.28773e-07
1.56321e-06
-1.6929e-06
1.51861e-06
-1.60782e-06
1.52425e-06
-1.82614e-06
1.58421e-06
-6.0774e-07
1.63285e-06
-1.76577e-07
1.67133e-06
-2.51473e-08
1.6827e-06
1.65046e-07
1.68124e-06
2.58382e-07
1.66153e-06
5.87973e-08
1.64222e-06
-3.61976e-08
1.61706e-06
-1.41684e-07
1.6041e-06
-1.52463e-07
1.59395e-06
-7.21541e-08
-3.46201e-08
1.58238e-06
1.58352e-06
1.38301e-07
1.55917e-06
-6.52526e-07
1.62111e-06
-2.04188e-06
1.76041e-06
2.90085e-07
1.81544e-06
1.6412e-06
1.75625e-06
4.87954e-07
1.64572e-06
-1.58236e-06
1.59438e-06
-1.55647e-06
1.58862e-06
-1.82038e-06
1.64995e-06
-6.69071e-07
1.70599e-06
-2.32617e-07
1.74956e-06
-6.87202e-08
1.76693e-06
1.47672e-07
1.76794e-06
2.57372e-07
1.74634e-06
8.04011e-08
1.72221e-06
-1.20695e-08
1.69194e-06
-1.11417e-07
1.67257e-06
-1.33086e-07
1.65979e-06
-5.93741e-08
-2.21387e-08
1.64731e-06
1.67654e-06
1.59335e-07
1.63925e-06
-6.15232e-07
1.68275e-06
-2.08538e-06
1.82175e-06
1.5109e-07
1.89155e-06
1.57139e-06
1.83652e-06
5.42983e-07
1.72948e-06
-1.47532e-06
1.67586e-06
-1.50285e-06
1.66039e-06
-1.80491e-06
1.71982e-06
-7.28506e-07
1.77834e-06
-2.9113e-07
1.8254e-06
-1.1578e-07
1.84787e-06
1.25199e-07
1.8515e-06
2.53737e-07
1.82924e-06
1.02665e-07
1.80192e-06
1.52515e-08
1.76839e-06
-7.78918e-08
1.74366e-06
-1.08357e-07
1.72793e-06
-4.36375e-08
-7.91301e-09
1.7137e-06
1.77156e-06
1.665e-07
1.72914e-06
-5.72816e-07
1.75166e-06
-2.1079e-06
1.88151e-06
2.12378e-08
1.95834e-06
1.49456e-06
1.91196e-06
5.89367e-07
1.81375e-06
-1.37712e-06
1.76205e-06
-1.45114e-06
1.73815e-06
-1.78101e-06
1.79208e-06
-7.82437e-07
1.84831e-06
-3.47355e-07
1.89616e-06
-1.63639e-07
1.92289e-06
9.84693e-08
1.9296e-06
2.47027e-07
1.90843e-06
1.2384e-07
1.88008e-06
4.35967e-08
1.84573e-06
-4.35347e-08
1.8176e-06
-8.0232e-08
1.79936e-06
-2.53934e-08
8.18721e-09
1.78326e-06
1.86654e-06
1.63707e-07
1.82564e-06
-5.31911e-07
1.82727e-06
-2.10953e-06
1.93963e-06
-9.11216e-08
2.01829e-06
1.4159e-06
1.98457e-06
6.23092e-07
1.89887e-06
-1.29142e-06
1.85222e-06
-1.40449e-06
1.82116e-06
-1.74995e-06
1.86624e-06
-8.27513e-07
1.9159e-06
-3.97012e-07
1.96144e-06
-2.09184e-07
1.99101e-06
6.88987e-08
2.00118e-06
2.36863e-07
1.98309e-06
1.41928e-07
1.95618e-06
7.0506e-08
1.92361e-06
-1.09637e-08
1.89458e-06
-5.12001e-08
1.87492e-06
-5.74079e-09
2.5617e-08
1.8575e-06
1.96138e-06
1.5517e-07
1.92604e-06
-4.9657e-07
1.90967e-06
-2.09317e-06
1.99907e-06
-1.80513e-07
2.07605e-06
1.33891e-06
2.05751e-06
6.41629e-07
1.9858e-06
-1.2197e-06
1.9459e-06
-1.36459e-06
1.90926e-06
-1.71332e-06
1.94337e-06
-8.61621e-07
1.98335e-06
-4.36995e-07
2.02366e-06
-2.49486e-07
2.05393e-06
3.8629e-08
2.06736e-06
2.23431e-07
2.05404e-06
1.55247e-07
2.03081e-06
9.37387e-08
2.00231e-06
1.75273e-08
1.9749e-06
-2.37821e-08
1.95528e-06
1.38762e-08
4.33113e-08
1.93759e-06
2.0572e-06
1.44164e-07
2.0288e-06
-4.68173e-07
1.9991e-06
-2.06348e-06
2.06456e-06
-2.45973e-07
2.13757e-06
1.2659e-06
2.13434e-06
6.44864e-07
2.07574e-06
-1.16111e-06
2.0428e-06
-1.33165e-06
2.00247e-06
-1.67299e-06
2.02542e-06
-8.84578e-07
2.05448e-06
-4.66047e-07
2.08744e-06
-2.82453e-07
2.11592e-06
1.0153e-08
2.1316e-06
2.0775e-07
2.12386e-06
1.62987e-07
2.10576e-06
1.11842e-07
2.08277e-06
4.05102e-08
2.05898e-06
1.35232e-11
2.04085e-06
3.20091e-08
6.00155e-08
2.02414e-06
2.15549e-06
1.32678e-07
2.13361e-06
-4.46298e-07
2.09543e-06
-2.0253e-06
2.14007e-06
-2.90614e-07
2.20792e-06
1.19806e-06
2.2178e-06
6.34979e-07
2.16986e-06
-1.11316e-06
2.14292e-06
-1.30471e-06
2.10069e-06
-1.63076e-06
2.11408e-06
-8.97963e-07
2.13287e-06
-4.84835e-07
2.1577e-06
-3.0729e-07
2.1823e-06
-1.44411e-08
2.19862e-06
1.91428e-07
2.1962e-06
1.65405e-07
2.18362e-06
1.24425e-07
2.16641e-06
5.77194e-08
2.14735e-06
1.90763e-08
2.13178e-06
4.75792e-08
7.46293e-08
2.11716e-06
2.25751e-06
1.21654e-07
2.24101e-06
-4.29794e-07
2.19811e-06
-1.98239e-06
2.22704e-06
-3.19553e-07
2.28953e-06
1.13557e-06
2.30923e-06
6.15274e-07
2.26897e-06
-1.07289e-06
2.24651e-06
-1.28226e-06
2.20373e-06
-1.58798e-06
2.20996e-06
-9.04192e-07
2.22046e-06
-4.95334e-07
2.23764e-06
-3.24469e-07
2.25735e-06
-3.41547e-08
2.27276e-06
1.76024e-07
2.2746e-06
1.6356e-07
2.26703e-06
1.31999e-07
2.25486e-06
6.98914e-08
2.24064e-06
3.32961e-08
2.22812e-06
6.00923e-08
8.65184e-08
2.21624e-06
2.36412e-06
1.11407e-07
2.35183e-06
-4.17502e-07
2.30645e-06
-1.93702e-06
2.32469e-06
-3.37789e-07
2.3823e-06
1.07796e-06
2.4087e-06
5.8887e-07
2.37356e-06
-1.03775e-06
2.35406e-06
-1.26275e-06
2.31145e-06
-1.54538e-06
2.3128e-06
-9.05541e-07
2.31738e-06
-4.99907e-07
2.32816e-06
-3.3525e-07
2.34322e-06
-4.9215e-08
2.35678e-06
1.62462e-07
2.36155e-06
1.58788e-07
2.35804e-06
1.3551e-07
2.34964e-06
7.8288e-08
2.33961e-06
4.3328e-08
2.33008e-06
6.96226e-08
9.56443e-08
2.32096e-06
2.47583e-06
1.01969e-07
2.46682e-06
-4.08492e-07
2.41998e-06
-1.89018e-06
2.43131e-06
-3.49118e-07
2.48486e-06
1.02441e-06
2.51573e-06
5.58005e-07
2.48392e-06
-1.00595e-06
2.46608e-06
-1.24491e-06
2.42393e-06
-1.50323e-06
2.42204e-06
-9.0365e-07
2.42276e-06
-5.00636e-07
2.42862e-06
-3.41102e-07
2.44005e-06
-6.06504e-08
2.45167e-06
1.50845e-07
2.4582e-06
1.52256e-07
2.45778e-06
1.35927e-07
2.45191e-06
8.41672e-08
2.44503e-06
5.01995e-08
2.43807e-06
7.65849e-08
1.02447e-07
2.43127e-06
2.593e-06
9.3267e-08
2.58655e-06
-4.02041e-07
2.53854e-06
-1.84217e-06
2.54554e-06
-3.56111e-07
2.59588e-06
9.74065e-07
2.62984e-06
5.24044e-07
2.60027e-06
-9.76376e-07
2.5831e-06
-1.22774e-06
2.54142e-06
-1.46155e-06
2.53727e-06
-8.99502e-07
2.5357e-06
-4.99064e-07
2.53794e-06
-3.43341e-07
2.54699e-06
-6.97066e-08
2.55713e-06
1.40705e-07
2.56461e-06
1.44776e-07
2.56651e-06
1.34026e-07
2.56223e-06
8.84541e-08
2.55746e-06
5.4966e-08
2.55259e-06
8.1457e-08
1.07563e-07
2.54747e-06
2.71589e-06
8.52076e-08
2.71141e-06
-3.97564e-07
2.66227e-06
-1.79303e-06
2.66667e-06
-3.60515e-07
2.71459e-06
9.26146e-07
2.75083e-06
4.87805e-07
2.72284e-06
-9.48381e-07
2.70553e-06
-1.21043e-06
2.66428e-06
-1.4203e-06
2.6584e-06
-8.9362e-07
2.65557e-06
-4.96233e-07
2.65525e-06
-3.43022e-07
2.66297e-06
-7.7428e-08
2.67232e-06
1.31356e-07
2.68024e-06
1.36859e-07
2.6839e-06
1.30364e-07
2.68067e-06
9.16864e-08
2.67714e-06
5.84936e-08
2.67397e-06
8.46255e-08
1.11542e-07
2.66999e-06
2.84477e-06
7.77041e-08
2.8418e-06
-3.94591e-07
2.79147e-06
-1.7427e-06
2.79454e-06
-3.6359e-07
2.84068e-06
8.8001e-07
2.87863e-06
4.49852e-07
2.85183e-06
-9.2158e-07
2.83378e-06
-1.19239e-06
2.7929e-06
-1.37941e-06
2.78554e-06
-8.86263e-07
2.78211e-06
-4.928e-07
2.78006e-06
-3.40976e-07
2.78716e-06
-8.45249e-08
2.79632e-06
1.22195e-07
2.80438e-06
1.288e-07
2.80939e-06
1.25348e-07
2.80698e-06
9.4101e-08
2.80408e-06
6.13937e-08
2.80233e-06
8.63789e-08
1.14703e-07
2.79917e-06
2.9799e-06
7.0698e-08
2.97809e-06
-3.92783e-07
2.92653e-06
-1.69113e-06
2.92921e-06
-3.66266e-07
2.97406e-06
8.3516e-07
3.01325e-06
4.10658e-07
2.98744e-06
-8.95773e-07
2.96818e-06
-1.17312e-06
2.92764e-06
-1.33887e-06
2.91893e-06
-8.77557e-07
2.91528e-06
-4.89143e-07
2.91215e-06
-3.3785e-07
2.91903e-06
-9.13998e-08
2.92844e-06
1.12778e-07
2.93647e-06
1.20777e-07
2.94249e-06
1.19319e-07
2.94084e-06
9.57571e-08
2.93819e-06
6.40427e-08
2.93759e-06
8.69796e-08
1.17135e-07
2.93516e-06
3.12153e-06
6.41719e-08
3.12067e-06
-3.9192e-07
3.06788e-06
-1.63835e-06
3.0708e-06
-3.69186e-07
3.11474e-06
7.91226e-07
3.15472e-06
3.70675e-07
3.12984e-06
-8.70893e-07
3.10907e-06
-1.15236e-06
3.06888e-06
-1.29868e-06
3.0589e-06
-8.67582e-07
3.05521e-06
-4.85449e-07
3.05149e-06
-3.34132e-07
3.05833e-06
-9.82348e-08
3.06827e-06
1.02833e-07
3.07617e-06
1.12875e-07
3.0829e-06
1.12592e-07
3.08201e-06
9.66455e-08
3.07942e-06
6.66339e-08
3.07969e-06
8.6713e-08
1.18785e-07
3.07804e-06
3.26993e-06
5.81504e-08
3.26989e-06
-3.91881e-07
3.21593e-06
-1.58439e-06
3.21949e-06
-3.72744e-07
3.26278e-06
7.47942e-07
3.30311e-06
3.30347e-07
3.27918e-06
-8.46964e-07
3.25677e-06
-1.12995e-06
3.21698e-06
-1.25888e-06
3.20582e-06
-8.56421e-07
3.20214e-06
-4.81775e-07
3.19818e-06
-3.30169e-07
3.20501e-06
-1.05063e-07
3.21562e-06
9.22242e-08
3.22336e-06
1.05127e-07
3.2305e-06
1.05459e-07
3.2304e-06
9.67451e-08
3.2278e-06
6.92301e-08
3.22863e-06
8.58845e-08
1.19549e-07
3.22787e-06
3.42539e-06
5.26902e-08
3.42611e-06
-3.92598e-07
3.37111e-06
-1.52939e-06
3.37547e-06
-3.77108e-07
3.41831e-06
7.05104e-07
3.45855e-06
2.90103e-07
3.43564e-06
-8.24046e-07
3.41161e-06
-1.10593e-06
3.37228e-06
-1.21956e-06
3.36004e-06
-8.44177e-07
3.35637e-06
-4.78108e-07
3.35239e-06
-3.2619e-07
3.35915e-06
-1.11817e-07
3.37044e-06
8.09318e-08
3.37804e-06
9.75318e-08
3.38533e-06
9.81619e-08
3.38603e-06
9.60534e-08
3.38346e-06
7.17987e-08
3.38454e-06
8.47966e-08
1.19316e-07
3.38478e-06
3.58825e-06
4.78546e-08
3.58965e-06
-3.94e-07
3.53381e-06
-1.47355e-06
3.53897e-06
-3.82264e-07
3.58153e-06
6.62537e-07
3.6213e-06
2.50334e-07
3.59946e-06
-8.02204e-07
3.57393e-06
-1.0804e-06
3.53515e-06
-1.18077e-06
3.52194e-06
-8.30969e-07
3.51822e-06
-4.74389e-07
3.51435e-06
-3.22318e-07
3.52092e-06
-1.1839e-07
3.5328e-06
6.90489e-08
3.54028e-06
9.005e-08
3.54755e-06
9.08902e-08
3.54902e-06
9.45917e-08
3.54657e-06
7.42477e-08
3.54767e-06
8.36992e-08
1.18035e-07
3.54895e-06
3.75888e-06
4.36835e-08
3.76085e-06
-3.95976e-07
3.70443e-06
-1.41713e-06
3.71022e-06
-3.88053e-07
3.75269e-06
6.20067e-07
3.79168e-06
2.1135e-07
3.77094e-06
-7.81469e-07
3.7441e-06
-1.05356e-06
3.7059e-06
-1.14257e-06
3.69184e-06
-8.16914e-07
3.688e-06
-4.70542e-07
3.68427e-06
-3.18593e-07
3.69057e-06
-1.24684e-07
3.70286e-06
5.67571e-08
3.7103e-06
8.26096e-08
3.71742e-06
8.37717e-08
3.71959e-06
9.24231e-08
3.7174e-06
7.64345e-08
3.71834e-06
8.27572e-08
1.15757e-07
3.72062e-06
3.9377e-06
4.01702e-08
3.94008e-06
-3.98357e-07
3.88336e-06
-1.36041e-06
3.88954e-06
-3.94225e-07
3.93208e-06
5.77527e-07
3.97007e-06
1.73358e-07
3.95044e-06
-7.61841e-07
3.9225e-06
-1.02562e-06
3.88489e-06
-1.10495e-06
3.8701e-06
-8.02128e-07
3.86604e-06
-4.6648e-07
3.86245e-06
-3.15008e-07
3.8684e-06
-1.30628e-07
3.88087e-06
4.42814e-08
3.88835e-06
7.51346e-08
3.89524e-06
7.68774e-08
3.89804e-06
8.96258e-08
3.89629e-06
7.8188e-08
3.89697e-06
8.20708e-08
1.12652e-07
3.90008e-06
4.12516e-06
3.72569e-08
4.12774e-06
-4.00937e-07
4.071e-06
-1.30367e-06
4.07725e-06
-4.00473e-07
4.12e-06
5.34777e-07
4.15689e-06
1.36466e-07
4.13834e-06
-7.43288e-07
4.10954e-06
-9.96817e-07
4.07247e-06
-1.06788e-06
4.05708e-06
-7.86738e-07
4.0527e-06
-4.62099e-07
4.04921e-06
-3.11517e-07
4.05478e-06
-1.36207e-07
4.0672e-06
3.187e-08
4.07473e-06
6.75978e-08
4.08142e-06
7.01913e-08
4.08475e-06
8.62972e-08
4.08357e-06
7.93695e-08
4.08402e-06
8.16162e-08
1.08997e-07
4.08768e-06
4.32171e-06
3.48518e-08
4.32428e-06
-4.03506e-07
4.26777e-06
-1.24716e-06
4.27377e-06
-4.06475e-07
4.31681e-06
4.91734e-07
4.35258e-06
1.00702e-07
4.33506e-06
-7.25768e-07
4.30562e-06
-9.67375e-07
4.26902e-06
-1.03129e-06
4.25317e-06
-7.7088e-07
4.24836e-06
-4.57289e-07
4.24489e-06
-3.08052e-07
4.25014e-06
-1.41456e-07
4.26223e-06
1.97805e-08
4.2698e-06
6.003e-08
4.27633e-06
6.36608e-08
4.28011e-06
8.25146e-08
4.27957e-06
7.99077e-08
4.27992e-06
8.12653e-08
1.05081e-07
4.28384e-06
4.52777e-06
3.28577e-08
4.53015e-06
-4.05884e-07
4.4741e-06
-1.19112e-06
4.47957e-06
-4.11943e-07
4.52291e-06
4.48388e-07
4.55755e-06
6.60667e-08
4.54102e-06
-7.09236e-07
4.51114e-06
-9.37499e-07
4.47498e-06
-9.95127e-07
4.45877e-06
-7.54673e-07
4.45346e-06
-4.51983e-07
4.44993e-06
-3.0452e-07
4.45487e-06
-1.46393e-07
4.46648e-06
8.16742e-09
4.47395e-06
5.25604e-08
4.48031e-06
5.73068e-08
4.48456e-06
7.82646e-08
4.4847e-06
7.97659e-08
4.48508e-06
8.08859e-08
1.01093e-07
4.48907e-06
4.74377e-06
3.11978e-08
4.74583e-06
-4.07938e-07
4.69044e-06
-1.13573e-06
4.69516e-06
-4.16663e-07
4.73874e-06
4.04807e-07
4.77224e-06
3.25742e-08
4.75666e-06
-6.93661e-07
4.72653e-06
-9.07371e-07
4.69077e-06
-9.59363e-07
4.67432e-06
-7.38222e-07
4.66851e-06
-4.46172e-07
4.66479e-06
-3.008e-07
4.66941e-06
-1.51022e-07
4.68051e-06
-2.93094e-09
4.68771e-06
4.53611e-08
4.69382e-06
5.12041e-08
4.69858e-06
7.35014e-08
4.69941e-06
7.89297e-08
4.69993e-06
8.03656e-08
9.71386e-08
4.70389e-06
4.97016e-06
2.98311e-08
4.97181e-06
-4.09583e-07
4.91725e-06
-1.08117e-06
4.92112e-06
-4.20528e-07
4.9648e-06
3.61122e-07
4.9971e-06
2.7378e-10
4.98246e-06
-6.79025e-07
4.95224e-06
-8.77149e-07
4.91685e-06
-9.2397e-07
4.90026e-06
-7.21636e-07
4.89401e-06
-4.39913e-07
4.88994e-06
-2.96734e-07
4.89428e-06
-1.55362e-07
4.90488e-06
-1.35302e-08
4.9117e-06
3.85396e-08
4.91748e-06
4.54202e-08
4.92273e-06
6.8252e-08
4.92432e-06
7.73451e-08
4.92493e-06
7.97543e-08
9.32558e-08
4.92881e-06
5.2074e-06
2.87512e-08
5.20859e-06
-4.10772e-07
5.15499e-06
-1.02757e-06
5.158e-06
-4.23541e-07
5.20162e-06
3.17501e-07
5.23265e-06
-3.07507e-08
5.21893e-06
-6.65302e-07
5.18876e-06
-8.46986e-07
5.1537e-06
-8.88908e-07
5.13706e-06
-7.04999e-07
5.13051e-06
-4.33362e-07
5.12593e-06
-2.92154e-07
5.12996e-06
-1.59392e-07
5.14016e-06
-2.3728e-08
5.14658e-06
3.21208e-08
5.15194e-06
4.00608e-08
5.15757e-06
6.26213e-08
5.15992e-06
7.49962e-08
5.16069e-06
7.89836e-08
8.96028e-08
5.16434e-06
5.45596e-06
2.79765e-08
5.45669e-06
-4.11496e-07
5.40413e-06
-9.75013e-07
5.40638e-06
-4.258e-07
5.44978e-06
2.74109e-07
5.47941e-06
-6.03869e-08
5.46657e-06
-6.5246e-07
5.43662e-06
-8.17036e-07
5.40183e-06
-8.54119e-07
5.38519e-06
-6.88359e-07
5.37856e-06
-4.26732e-07
5.37336e-06
-2.86955e-07
5.37701e-06
-1.63035e-07
5.38691e-06
-3.36355e-08
5.39304e-06
2.59949e-08
5.39785e-06
3.52479e-08
5.40363e-06
5.68402e-08
5.40675e-06
7.18774e-08
5.40785e-06
7.78804e-08
8.6355e-08
5.4111e-06
5.7164e-06
2.75323e-08
5.71668e-06
-4.1177e-07
5.66516e-06
-9.23497e-07
5.66685e-06
-4.27486e-07
5.70982e-06
2.3114e-07
5.73794e-06
-8.85056e-08
5.72593e-06
-6.40458e-07
5.69638e-06
-7.87482e-07
5.6618e-06
-8.19541e-07
5.64514e-06
-6.71698e-07
5.63868e-06
-4.20272e-07
5.63284e-06
-2.81115e-07
5.63594e-06
-1.66136e-07
5.64567e-06
-4.33658e-08
5.65165e-06
2.00165e-08
5.65587e-06
3.10329e-08
5.6615e-06
5.12045e-08
5.66534e-06
6.80401e-08
5.667e-06
7.62185e-08
8.35925e-08
5.66976e-06
5.98929e-06
2.74382e-08
5.98915e-06
-4.11631e-07
5.93865e-06
-8.73002e-07
5.93998e-06
-4.28809e-07
5.98235e-06
1.8877e-07
6.00874e-06
-1.14897e-07
5.99756e-06
-6.29282e-07
5.96864e-06
-7.58561e-07
5.93421e-06
-7.85114e-07
5.91745e-06
-6.54933e-07
5.91138e-06
-4.14204e-07
5.90501e-06
-2.74744e-07
5.90734e-06
-1.68464e-07
5.917e-06
-5.30288e-08
5.92299e-06
1.40282e-08
5.92657e-06
2.74458e-08
5.93185e-06
4.59282e-08
5.93626e-06
6.36318e-08
5.93858e-06
7.38996e-08
8.11046e-08
5.94106e-06
6.27523e-06
2.77e-08
6.27473e-06
-4.11132e-07
6.22525e-06
-8.23526e-07
6.22634e-06
-4.29897e-07
6.268e-06
1.47108e-07
6.2924e-06
-1.393e-07
6.282e-06
-6.18877e-07
6.25401e-06
-7.30571e-07
6.21971e-06
-7.5082e-07
6.20269e-06
-6.37907e-07
6.19715e-06
-4.08667e-07
6.19051e-06
-2.68104e-07
6.19181e-06
-1.69766e-07
6.2014e-06
-6.26179e-08
6.20764e-06
7.7895e-09
6.2106e-06
2.44836e-08
6.21535e-06
4.11848e-08
6.22012e-06
5.88578e-08
6.22314e-06
7.08775e-08
7.86068e-08
6.22564e-06
6.57487e-06
2.83003e-08
6.57406e-06
-4.10319e-07
6.52574e-06
-7.75212e-07
6.52645e-06
-4.30601e-07
6.56745e-06
1.06102e-07
6.58962e-06
-1.61465e-07
6.57981e-06
-6.09072e-07
6.5531e-06
-7.03859e-07
6.519e-06
-7.16718e-07
6.5015e-06
-6.20403e-07
6.49653e-06
-4.03698e-07
6.48997e-06
-2.61548e-07
6.49007e-06
-1.69864e-07
6.49941e-06
-7.19629e-08
6.50614e-06
1.06271e-09
6.50863e-06
2.19948e-08
6.51266e-06
3.71501e-08
6.5176e-06
5.39155e-08
6.52129e-06
6.7192e-08
7.58409e-08
6.52406e-06
6.8889e-06
2.91935e-08
6.88778e-06
-4.09203e-07
6.84094e-06
-7.28374e-07
6.8408e-06
-4.30456e-07
6.88134e-06
6.55565e-08
6.90118e-06
-1.81303e-07
6.89157e-06
-5.99463e-07
6.86652e-06
-6.78804e-07
6.83279e-06
-6.82988e-07
6.81457e-06
-6.02184e-07
6.81008e-06
-3.9921e-07
6.80394e-06
-2.55413e-07
6.80283e-06
-1.68746e-07
6.81158e-06
-8.07193e-08
6.81899e-06
-6.34794e-09
6.82129e-06
1.96998e-08
6.82449e-06
3.3951e-08
6.82936e-06
4.90398e-08
6.83367e-06
6.28877e-08
7.26511e-08
6.83686e-06
7.21803e-06
3.03014e-08
7.21657e-06
-4.07749e-07
7.17163e-06
-6.83425e-07
7.16996e-06
-4.28788e-07
7.21029e-06
2.52283e-08
7.22791e-06
-1.98932e-07
7.21798e-06
-5.89527e-07
7.19482e-06
-6.55643e-07
7.16181e-06
-6.49978e-07
7.14267e-06
-5.83046e-07
7.13844e-06
-3.94979e-07
7.13301e-06
-2.49982e-07
7.13079e-06
-1.66529e-07
7.13859e-06
-8.85205e-08
7.14674e-06
-1.44939e-08
7.14921e-06
1.72311e-08
7.15154e-06
3.16199e-08
7.15609e-06
4.44874e-08
7.16093e-06
5.80512e-08
6.8924e-08
7.16465e-06
7.56301e-06
3.15158e-08
7.56109e-06
-4.05831e-07
7.51854e-06
-6.40875e-07
7.5146e-06
-4.24843e-07
7.55485e-06
-1.50286e-08
7.57065e-06
-2.14729e-07
7.55981e-06
-5.78689e-07
7.53861e-06
-6.3444e-07
7.50673e-06
-6.18101e-07
7.4866e-06
-5.6291e-07
7.48232e-06
-3.90702e-07
7.47773e-06
-2.45392e-07
7.47463e-06
-1.6343e-07
7.48118e-06
-9.50612e-08
7.48993e-06
-2.32536e-08
7.49293e-06
1.42357e-08
7.49455e-06
3.0005e-08
7.49853e-06
4.05064e-08
7.5037e-06
5.28741e-08
6.45452e-08
7.50808e-06
7.92463e-06
3.26964e-08
7.92193e-06
-4.0313e-07
7.88243e-06
-6.01378e-07
7.87557e-06
-4.1798e-07
7.9156e-06
-5.50581e-08
7.93023e-06
-2.29361e-07
7.91795e-06
-5.66403e-07
7.89852e-06
-6.15012e-07
7.86825e-06
-5.87829e-07
7.84717e-06
-5.41835e-07
7.84248e-06
-3.86011e-07
7.83873e-06
-2.41639e-07
7.83501e-06
-1.59715e-07
7.84013e-06
-1.00179e-07
7.84921e-06
-3.2336e-08
7.85303e-06
1.04168e-08
7.85423e-06
2.88096e-08
7.85748e-06
3.72532e-08
7.86267e-06
4.76859e-08
5.9446e-08
7.86777e-06
8.3037e-06
3.36731e-08
8.29975e-06
-3.99172e-07
8.26395e-06
-5.65581e-07
8.25394e-06
-4.07968e-07
8.29308e-06
-9.42058e-08
8.30739e-06
-2.43666e-07
8.29336e-06
-5.52375e-07
8.27522e-06
-5.96867e-07
8.24699e-06
-5.59599e-07
8.22518e-06
-5.20026e-07
8.21968e-06
-3.80511e-07
8.21657e-06
-2.38535e-07
8.21257e-06
-1.55706e-07
8.21617e-06
-1.03785e-07
8.22516e-06
-4.13271e-08
8.23007e-06
5.51168e-09
8.23123e-06
2.76418e-08
8.23375e-06
3.47336e-08
8.23862e-06
4.28221e-08
5.37466e-08
8.24432e-06
8.70108e-06
3.42595e-08
8.69538e-06
-3.93479e-07
8.66376e-06
-5.33956e-07
8.65084e-06
-3.95054e-07
8.68792e-06
-1.31281e-07
8.70279e-06
-2.58538e-07
8.68706e-06
-5.36644e-07
8.6695e-06
-5.79313e-07
8.64354e-06
-5.33638e-07
8.62132e-06
-4.97801e-07
8.61464e-06
-3.7383e-07
8.61187e-06
-2.35771e-07
8.6079e-06
-1.51735e-07
8.61005e-06
-1.05931e-07
8.61851e-06
-4.97895e-08
8.62458e-06
-5.5818e-10
8.62626e-06
2.59647e-08
8.62819e-06
3.28073e-08
8.63246e-06
3.85492e-08
4.78001e-08
8.63841e-06
9.11761e-06
3.42694e-08
9.10979e-06
-3.85659e-07
9.08255e-06
-5.06712e-07
9.06747e-06
-3.79975e-07
9.10095e-06
-1.64765e-07
9.11699e-06
-2.74582e-07
9.1001e-06
-5.19746e-07
9.08219e-06
-5.61408e-07
9.05843e-06
-5.09874e-07
9.03615e-06
-4.75521e-07
9.028e-06
-3.65684e-07
9.02531e-06
-2.33081e-07
9.02171e-06
-1.4813e-07
9.02264e-06
-1.06864e-07
9.03021e-06
-5.73601e-08
9.03732e-06
-7.66768e-09
9.03997e-06
2.33163e-08
9.04164e-06
3.11331e-08
9.04521e-06
3.49811e-08
4.21282e-08
9.05088e-06
9.5542e-06
3.35298e-08
9.54401e-06
-3.7547e-07
9.52106e-06
-4.83765e-07
9.50503e-06
-3.63938e-07
9.53328e-06
-1.93021e-07
9.55049e-06
-2.9179e-07
9.5333e-06
-5.0256e-07
9.51419e-06
-5.4229e-07
9.49215e-06
-4.87834e-07
9.47031e-06
-4.53686e-07
9.46073e-06
-3.56105e-07
9.45807e-06
-2.30419e-07
9.45503e-06
-1.45093e-07
9.45501e-06
-1.06842e-07
9.46139e-06
-6.374e-08
9.46924e-06
-1.55173e-08
9.47315e-06
1.94061e-08
9.47493e-06
2.9354e-08
9.4779e-06
3.20109e-08
3.71491e-08
9.48288e-06
1.00118e-05
3.18938e-08
9.99916e-06
-3.62855e-07
9.98014e-06
-4.64752e-07
9.96439e-06
-3.48188e-07
9.98617e-06
-2.14799e-07
1.00038e-05
-3.09395e-07
9.98713e-06
-4.85918e-07
9.96658e-06
-5.21732e-07
9.9458e-06
-4.67062e-07
9.92481e-06
-4.3269e-07
9.91417e-06
-3.45465e-07
9.91156e-06
-2.27815e-07
9.90923e-06
-1.42765e-07
9.9084e-06
-1.06005e-07
9.91341e-06
-6.87493e-08
9.92152e-06
-2.36304e-08
9.92672e-06
1.42041e-08
9.92889e-06
2.71839e-08
9.93156e-06
2.9346e-08
3.3023e-08
9.93568e-06
1.04913e-05
2.9267e-08
1.04763e-05
-3.47929e-07
1.04607e-05
-4.49156e-07
1.04464e-05
-3.33802e-07
1.04612e-05
-2.29645e-07
1.04776e-05
-3.25783e-07
1.04626e-05
-4.70908e-07
1.0441e-05
-5.00102e-07
1.04209e-05
-4.46997e-07
1.04009e-05
-4.1273e-07
1.03896e-05
-3.34152e-07
1.0387e-05
-2.25172e-07
1.03853e-05
-1.41114e-07
1.03841e-05
-1.0479e-07
1.03876e-05
-7.22464e-08
1.03954e-05
-3.13883e-08
1.04017e-05
7.8482e-09
1.04045e-05
2.44224e-08
1.0407e-05
2.68023e-08
2.94968e-08
1.04105e-05
1.09937e-05
2.56281e-08
1.09767e-05
-3.30979e-07
1.09636e-05
-4.36047e-07
1.09517e-05
-3.21887e-07
1.09603e-05
-2.3824e-07
1.09738e-05
-3.39333e-07
1.0961e-05
-4.58103e-07
1.0939e-05
-4.78032e-07
1.09188e-05
-4.26872e-07
1.08999e-05
-3.93784e-07
1.08883e-05
-3.22599e-07
1.08855e-05
-2.2239e-07
1.08845e-05
-1.40048e-07
1.08831e-05
-1.03406e-07
1.08852e-05
-7.43843e-08
1.0892e-05
-3.81773e-08
1.08992e-05
6.7034e-10
1.09028e-05
2.08495e-08
1.09052e-05
2.43274e-08
2.61972e-08
1.09085e-05
1.15199e-05
2.10504e-08
1.15014e-05
-3.12443e-07
1.14897e-05
-4.24292e-07
1.14811e-05
-3.13371e-07
1.14846e-05
-2.41702e-07
1.14939e-05
-3.48597e-07
1.14834e-05
-4.47663e-07
1.1462e-05
-4.56571e-07
1.14413e-05
-4.0617e-07
1.14228e-05
-3.75354e-07
1.14113e-05
-3.11024e-07
1.14084e-05
-2.19508e-07
1.14078e-05
-1.39461e-07
1.14065e-05
-1.02078e-07
1.14074e-05
-7.53737e-08
1.14129e-05
-4.36564e-08
1.14203e-05
-6.72707e-09
1.14249e-05
1.62816e-08
1.14274e-05
2.18603e-08
2.29934e-08
1.14306e-05
1.20712e-05
1.57006e-08
1.20516e-05
-2.92901e-07
1.20402e-05
-4.12883e-07
1.20355e-05
-3.08636e-07
1.20352e-05
-2.41442e-07
1.20394e-05
-3.52764e-07
1.20306e-05
-4.3883e-07
1.2011e-05
-4.36983e-07
1.19899e-05
-3.8507e-07
1.19712e-05
-3.56697e-07
1.19595e-05
-2.9927e-07
1.19564e-05
-2.16461e-07
1.19563e-05
-1.39335e-07
1.19552e-05
-1.00973e-07
1.19554e-05
-7.55697e-08
1.19595e-05
-4.77706e-08
1.19664e-05
-1.36512e-08
1.19719e-05
1.07893e-08
1.19746e-05
1.913e-08
2.00007e-08
1.19776e-05
1.26484e-05
9.84617e-09
1.26287e-05
-2.7314e-07
1.26166e-05
-4.00826e-07
1.26156e-05
-3.07634e-07
1.26132e-05
-2.39063e-07
1.26122e-05
-3.5169e-07
1.26033e-05
-4.29992e-07
1.25867e-05
-4.20359e-07
1.25659e-05
-3.64275e-07
1.25466e-05
-3.37381e-07
1.25342e-05
-2.86876e-07
1.25308e-05
-2.13077e-07
1.25311e-05
-1.39643e-07
1.25304e-05
-1.00248e-07
1.25301e-05
-7.52972e-08
1.2533e-05
-5.06074e-08
1.2539e-05
-1.9707e-08
1.2545e-05
4.83882e-09
1.25483e-05
1.58287e-08
1.72374e-08
1.2551e-05
1.32529e-05
3.83169e-09
1.32339e-05
-2.5411e-07
1.32203e-05
-3.87237e-07
1.32226e-05
-3.09913e-07
1.32196e-05
-2.36042e-07
1.32136e-05
-3.45679e-07
1.32031e-05
-4.19527e-07
1.31896e-05
-4.0688e-07
1.31703e-05
-3.44977e-07
1.31505e-05
-3.17517e-07
1.3137e-05
-2.73422e-07
1.31329e-05
-2.08972e-07
1.31334e-05
-1.40178e-07
1.31333e-05
-1.00075e-07
1.31328e-05
-7.47984e-08
1.31347e-05
-5.25016e-08
1.31396e-05
-2.46767e-08
1.31456e-05
-1.0893e-09
1.31495e-05
1.194e-08
1.45638e-08
1.31521e-05
1.38859e-05
-1.9512e-09
1.38686e-05
-2.36756e-07
1.38528e-05
-3.71471e-07
1.38572e-05
-3.14307e-07
1.38552e-05
-2.34022e-07
1.3845e-05
-3.3548e-07
1.38316e-05
-4.061e-07
1.38202e-05
-3.95483e-07
1.38036e-05
-3.28426e-07
1.3784e-05
-2.97914e-07
1.37694e-05
-2.58812e-07
1.37642e-05
-2.03741e-07
1.37646e-05
-1.40573e-07
1.3765e-05
-1.00476e-07
1.37645e-05
-7.43367e-08
1.37657e-05
-5.36995e-08
1.37697e-05
-2.86438e-08
1.37751e-05
-6.52635e-09
1.37794e-05
7.64923e-09
1.17464e-08
1.37822e-05
1.45489e-05
-7.18294e-09
1.45335e-05
-2.21375e-07
1.4515e-05
-3.52986e-07
1.45206e-05
-3.19853e-07
1.45208e-05
-2.34293e-07
1.45076e-05
-3.22248e-07
1.44906e-05
-3.89101e-07
1.44795e-05
-3.84383e-07
1.44665e-05
-3.15382e-07
1.44484e-05
-2.79806e-07
1.44329e-05
-2.43319e-07
1.44262e-05
-1.97072e-07
1.4426e-05
-1.40338e-07
1.44268e-05
-1.0128e-07
1.44266e-05
-7.42148e-08
1.44273e-05
-5.43894e-08
1.44305e-05
-3.17648e-08
1.44353e-05
-1.13411e-08
1.44396e-05
3.31342e-09
8.73762e-09
1.44426e-05
1.52432e-05
-1.15223e-08
1.52271e-05
-2.0527e-07
1.52077e-05
-3.33597e-07
1.52151e-05
-3.27228e-07
1.52176e-05
-2.36761e-07
1.52017e-05
-3.06409e-07
1.51814e-05
-3.688e-07
1.51693e-05
-3.7223e-07
1.51597e-05
-3.05786e-07
1.51444e-05
-2.64533e-07
1.51288e-05
-2.27721e-07
1.51205e-05
-1.88793e-07
1.51192e-05
-1.39031e-07
1.51201e-05
-1.02175e-07
1.51204e-05
-7.45054e-08
1.51209e-05
-5.49125e-08
1.51233e-05
-3.41138e-08
1.51274e-05
-1.54908e-08
1.51316e-05
-8.80671e-10
5.63497e-09
1.51347e-05
1.59709e-05
-1.50852e-08
1.59701e-05
-2.04439e-07
1.59499e-05
-3.13453e-07
1.59465e-05
-3.23845e-07
1.59448e-05
-2.35032e-07
1.59284e-05
-2.89968e-07
1.59062e-05
-3.46659e-07
1.58922e-05
-3.58233e-07
1.58846e-05
-2.98142e-07
1.5873e-05
-2.52921e-07
1.58584e-05
-2.13122e-07
1.58488e-05
-1.79198e-07
1.58461e-05
-1.36304e-07
1.58466e-05
-1.02703e-07
1.58472e-05
-7.51584e-08
1.58479e-05
-5.55483e-08
1.58496e-05
-3.58907e-08
1.58531e-05
-1.89416e-08
1.58571e-05
-4.84871e-09
2.54707e-09
1.58602e-05
1.67322e-05
-1.67053e-08
1.67166e-05
-1.88854e-07
1.66939e-05
-2.90723e-07
1.66947e-05
-3.24665e-07
1.6702e-05
-2.42315e-07
1.669e-05
-2.77953e-07
1.66672e-05
-3.23907e-07
1.6651e-05
-3.41951e-07
1.66433e-05
-2.90503e-07
1.66351e-05
-2.44705e-07
1.66228e-05
-2.00799e-07
1.66125e-05
-1.68942e-07
1.66082e-05
-1.31936e-07
1.6608e-05
-1.02504e-07
1.66087e-05
-7.59135e-08
1.66095e-05
-5.63607e-08
1.66111e-05
-3.74447e-08
1.66139e-05
-2.17246e-08
1.66175e-05
-8.46999e-09
-4.83906e-10
1.66205e-05
1.75311e-05
-1.7431e-08
1.75272e-05
-1.84925e-07
1.75008e-05
-2.64412e-07
1.74905e-05
-3.14294e-07
1.74963e-05
-2.48169e-07
1.74881e-05
-2.69772e-07
1.74661e-05
-3.01874e-07
1.74477e-05
-3.23552e-07
1.74383e-05
-2.81045e-07
1.7432e-05
-2.38479e-07
1.74227e-05
-1.9149e-07
1.7413e-05
-1.59172e-07
1.74072e-05
-1.26186e-07
1.74059e-05
-1.01217e-07
1.74064e-05
-7.64266e-08
1.74074e-05
-5.73398e-08
1.7409e-05
-3.89874e-08
1.74113e-05
-2.40254e-08
1.74144e-05
-1.16525e-08
-3.47619e-09
1.74174e-05
1.83678e-05
-1.69005e-08
1.8358e-05
-1.75143e-07
1.83366e-05
-2.43005e-07
1.83254e-05
-3.03062e-07
1.83291e-05
-2.51835e-07
1.83237e-05
-2.64418e-07
1.83033e-05
-2.81487e-07
1.82838e-05
-3.04058e-07
1.82724e-05
-2.69643e-07
1.82664e-05
-2.32415e-07
1.82597e-05
-1.84827e-07
1.82515e-05