/*--------------------------------*- C++ -*----------------------------------*\
| =========                 |                                                 |
| \\      /  F ield         | OpenFOAM: The Open Source CFD Toolbox           |
|  \\    /   O peration     | Version:  2506                                  |
|   \\  /    A nd           | Website:  www.openfoam.com                      |
|    \\/     M anipulation  |                                                 |
\*---------------------------------------------------------------------------*/
FoamFile
{
    version     2.0;
    format      ascii;
    arch        "LSB;label=32;scalar=64";
    class       surfaceScalarField;
    location    "5.65";
    object      phi;
}
// * * * * * * * * * * * * * * * * * * * * * * * * * * * * * * * * * * * * * //

dimensions      [0 3 -1 0 0 0 0];

oriented        oriented;

internalField   nonuniform List<scalar> 
19000
(
1.18186e-06
1.03831e-06
1.15612e-06
-1.21375e-07
1.22847e-06
1.39731e-06
1.06032e-06
-1.71134e-06
1.1215e-06
-5.43824e-08
1.20107e-06
1.50861e-06
1.10988e-06
1.79132e-07
1.13959e-06
3.29376e-07
1.16301e-06
8.88686e-07
1.09807e-06
-3.75392e-08
1.14841e-06
8.10164e-07
1.09869e-06
-4.81416e-07
1.15015e-06
-1.12486e-07
1.123e-06
3.23975e-08
1.13302e-06
1.56504e-08
1.13448e-06
3.96309e-07
1.13696e-06
1.7811e-07
1.14189e-06
4.10337e-07
1.14604e-06
2.84946e-07
4.12452e-07
1.14568e-06
1.23405e-06
1.02852e-06
1.21075e-06
-9.80749e-08
1.28198e-06
1.32608e-06
1.10608e-06
-1.53544e-06
1.17401e-06
-1.22313e-07
1.2671e-06
1.41552e-06
1.16921e-06
2.77023e-07
1.19799e-06
3.00598e-07
1.21798e-06
8.687e-07
1.15621e-06
2.4229e-08
1.19775e-06
7.68617e-07
1.15063e-06
-4.34291e-07
1.19994e-06
-1.61794e-07
1.18486e-06
4.74756e-08
1.17975e-06
2.07555e-08
1.21341e-06
3.6265e-07
1.18357e-06
2.07956e-07
1.22308e-06
3.70826e-07
1.18877e-06
3.19254e-07
3.69994e-07
1.23123e-06
1.29017e-06
1.02113e-06
1.2658e-06
-7.37087e-08
1.33721e-06
1.25468e-06
1.16243e-06
-1.36065e-06
1.22571e-06
-1.856e-07
1.33625e-06
1.30498e-06
1.23671e-06
3.76561e-07
1.25973e-06
2.77583e-07
1.27581e-06
8.52622e-07
1.22218e-06
7.78565e-08
1.25332e-06
7.37472e-07
1.21632e-06
-3.97289e-07
1.25081e-06
-1.96284e-07
1.25708e-06
4.12059e-08
1.23271e-06
4.51302e-08
1.27865e-06
3.16703e-07
1.24235e-06
2.44262e-07
1.2718e-06
3.41372e-07
1.25716e-06
3.33892e-07
3.65001e-07
1.26216e-06
1.34919e-06
1.01605e-06
1.32442e-06
-4.89387e-08
1.39349e-06
1.18561e-06
1.23166e-06
-1.19883e-06
1.27895e-06
-2.32886e-07
1.40407e-06
1.17986e-06
1.3084e-06
4.72229e-07
1.32072e-06
2.65265e-07
1.33365e-06
8.39688e-07
1.29364e-06
1.17873e-07
1.31463e-06
7.16485e-07
1.29085e-06
-3.73513e-07
1.3063e-06
-2.11731e-07
1.32899e-06
1.85126e-08
1.2972e-06
7.69184e-08
1.33125e-06
2.82653e-07
1.3109e-06
2.64619e-07
1.31945e-06
3.32816e-07
1.32111e-06
3.32237e-07
3.67953e-07
1.31815e-06
1.41185e-06
1.01255e-06
1.38817e-06
-2.52581e-08
1.45138e-06
1.1224e-06
1.3142e-06
-1.06165e-06
1.33488e-06
-2.53567e-07
1.4643e-06
1.05044e-06
1.38263e-06
5.53895e-07
1.37936e-06
2.68538e-07
1.39029e-06
8.28755e-07
1.3661e-06
1.42059e-07
1.38097e-06
7.01622e-07
1.36752e-06
-3.60069e-07
1.36886e-06
-2.13072e-07
1.39606e-06
-8.67821e-09
1.37239e-06
1.00587e-07
1.38902e-06
2.66021e-07
1.38407e-06
2.69566e-07
1.38395e-06
3.32938e-07
1.3867e-06
3.29487e-07
3.68854e-07
1.3858e-06
1.47868e-06
1.00955e-06
1.45776e-06
-4.33822e-09
1.51154e-06
1.06862e-06
1.40563e-06
-9.55736e-07
1.39551e-06
-2.43445e-07
1.51573e-06
9.30218e-07
1.45834e-06
6.11284e-07
1.43863e-06
2.88247e-07
1.44803e-06
8.19362e-07
1.43781e-06
1.52275e-07
1.45143e-06
6.88005e-07
1.4445e-06
-3.53145e-07
1.43842e-06
-2.06995e-07
1.46188e-06
-3.2132e-08
1.45108e-06
1.11385e-07
1.45734e-06
2.59765e-07
1.45854e-06
2.68357e-07
1.45798e-06
3.33504e-07
1.45925e-06
3.28217e-07
3.69735e-07
1.45837e-06
1.54991e-06
1.00585e-06
1.53299e-06
1.25888e-08
1.57499e-06
1.02662e-06
1.49979e-06
-8.80538e-07
1.46346e-06
-2.07116e-07
1.56404e-06
8.29641e-07
1.53504e-06
6.40283e-07
1.50346e-06
3.1982e-07
1.51135e-06
8.11477e-07
1.51035e-06
1.53276e-07
1.52575e-06
6.726e-07
1.52319e-06
-3.50584e-07
1.51324e-06
-1.97038e-07
1.53012e-06
-4.90128e-08
1.52864e-06
1.12858e-07
1.5314e-06
2.57013e-07
1.53384e-06
2.65913e-07
1.53341e-06
3.33935e-07
1.53447e-06
3.27158e-07
3.71397e-07
1.53281e-06
1.62547e-06
1.00051e-06
1.61309e-06
2.49663e-08
1.64284e-06
9.96866e-07
1.59226e-06
-8.2995e-07
1.54048e-06
-1.55338e-07
1.61744e-06
7.52675e-07
1.61273e-06
6.44993e-07
1.57692e-06
3.5563e-07
1.58379e-06
8.04613e-07
1.58679e-06
1.50272e-07
1.60448e-06
6.54915e-07
1.60472e-06
-3.5083e-07
1.59211e-06
-1.84423e-07
1.60248e-06
-5.93835e-08
1.60542e-06
1.09914e-07
1.60736e-06
2.55072e-07
1.61033e-06
2.62944e-07
1.60877e-06
3.35499e-07
1.60948e-06
3.26446e-07
3.7352e-07
1.60735e-06
1.70505e-06
9.93036e-07
1.6972e-06
3.28101e-08
1.71589e-06
9.78181e-07
1.68173e-06
-7.95796e-07
1.62619e-06
-9.97896e-08
1.68155e-06
6.97308e-07
1.6922e-06
6.3435e-07
1.65895e-06
3.88876e-07
1.66584e-06
7.97725e-07
1.66937e-06
1.46738e-07
1.68826e-06
6.36023e-07
1.68924e-06
-3.51804e-07
1.67487e-06
-1.70059e-07
1.67958e-06
-6.40895e-08
1.68375e-06
1.05745e-07
1.68499e-06
2.53836e-07
1.68888e-06
2.59049e-07
1.68594e-06
3.38444e-07
1.68571e-06
3.26676e-07
3.75808e-07
1.68342e-06
1.78834e-06
9.8342e-07
1.78464e-06
3.65052e-08
1.79437e-06
9.68454e-07
1.76931e-06
-7.70736e-07
1.71866e-06
-4.91415e-08
1.75769e-06
6.58283e-07
1.77483e-06
6.17208e-07
1.74774e-06
4.15964e-07
1.75563e-06
7.8984e-07
1.75844e-06
1.43925e-07
1.77726e-06
6.172e-07
1.77669e-06
-3.51236e-07
1.76173e-06
-1.55094e-07
1.76153e-06
-6.38917e-08
1.76558e-06
1.01695e-07
1.76552e-06
2.53893e-07
1.7705e-06
2.54073e-07
1.76688e-06
3.42063e-07
1.7657e-06
3.27856e-07
3.77643e-07
1.76386e-06
1.87519e-06
9.7198e-07
1.87502e-06
3.66732e-08
1.87816e-06
9.65317e-07
1.85709e-06
-7.49664e-07
1.81593e-06
-7.98763e-09
1.84426e-06
6.29954e-07
1.86196e-06
5.99511e-07
1.84155e-06
4.36373e-07
1.85085e-06
7.8054e-07
1.85288e-06
1.41889e-07
1.87084e-06
5.9924e-07
1.86708e-06
-3.47475e-07
1.85263e-06
-1.40639e-07
1.84809e-06
-5.93582e-08
1.85181e-06
9.79827e-08
1.85001e-06
2.55692e-07
1.8558e-06
2.48282e-07
1.85248e-06
3.45384e-07
1.8507e-06
3.2964e-07
3.78023e-07
1.85031e-06
1.96563e-06
9.59193e-07
1.96819e-06
3.4113e-08
1.96703e-06
9.66472e-07
1.94712e-06
-7.29756e-07
1.91676e-06
2.23731e-08
1.93876e-06
6.07957e-07
1.95427e-06
5.84006e-07
1.9394e-06
4.51236e-07
1.95003e-06
7.69915e-07
1.95127e-06
1.40642e-07
1.96803e-06
5.82482e-07
1.96035e-06
-3.39789e-07
1.94723e-06
-1.27524e-07
1.93891e-06
-5.1039e-08
1.94254e-06
9.43535e-08
1.93894e-06
2.59294e-07
1.94501e-06
2.42215e-07
1.94282e-06
3.47573e-07
1.94063e-06
3.31826e-07
3.76057e-07
1.9426e-06
2.05981e-06
9.45576e-07
2.06418e-06
2.97395e-08
2.06088e-06
9.6977e-07
2.04093e-06
-7.09808e-07
2.02053e-06
4.27813e-08
2.03887e-06
5.89614e-07
2.05169e-06
5.71188e-07
2.04083e-06
4.62096e-07
2.05247e-06
7.58269e-07
2.05262e-06
1.40497e-07
2.06808e-06
5.67015e-07
2.0564e-06
-3.28101e-07
2.04511e-06
-1.16234e-07
2.03367e-06
-3.95997e-08
2.03758e-06
9.0437e-08
2.03254e-06
2.64339e-07
2.03826e-06
2.3649e-07
2.03782e-06
3.48015e-07
2.03518e-06
3.3447e-07
3.71384e-07
2.03985e-06
2.15797e-06
9.31603e-07
2.16323e-06
2.44866e-08
2.15975e-06
9.7325e-07
2.1394e-06
-6.89458e-07
2.12689e-06
5.52927e-08
2.14286e-06
5.73644e-07
2.15367e-06
5.60379e-07
2.14547e-06
4.7029e-07
2.15785e-06
7.45892e-07
2.15658e-06
1.41761e-07
2.17087e-06
5.52725e-07
2.15538e-06
-3.12607e-07
2.14608e-06
-1.06932e-07
2.13225e-06
-2.57759e-08
2.13679e-06
8.58981e-08
2.13104e-06
2.7009e-07
2.13589e-06
2.31644e-07
2.13771e-06
3.46196e-07
2.13451e-06
3.37668e-07
3.64229e-07
2.14166e-06
2.26045e-06
9.17645e-07
2.26573e-06
1.91996e-08
2.26374e-06
9.7524e-07
2.24292e-06
-6.68634e-07
2.23577e-06
6.24416e-08
2.24971e-06
5.59703e-07
2.25957e-06
5.50522e-07
2.25309e-06
4.76766e-07
2.26605e-06
7.32935e-07
2.26339e-06
1.44413e-07
2.27685e-06
5.3927e-07
2.25783e-06
-2.93583e-07
2.25043e-06
-9.95306e-08
2.23488e-06
-1.0227e-08
2.24023e-06
8.05436e-08
2.23476e-06
2.75562e-07
2.23834e-06
2.28067e-07
2.24286e-06
3.4167e-07
2.23927e-06
3.41263e-07
3.553e-07
2.2482e-06
2.36761e-06
9.03914e-07
2.37225e-06
1.45608e-08
2.37297e-06
9.74513e-07
2.35162e-06
-6.47281e-07
2.34746e-06
6.65972e-08
2.35922e-06
5.47952e-07
2.36907e-06
5.40667e-07
2.36372e-06
4.82115e-07
2.37729e-06
7.19368e-07
2.37359e-06
1.48108e-07
2.38673e-06
5.26135e-07
2.36454e-06
-2.71391e-07
2.3588e-06
-9.37917e-08
2.34202e-06
6.54571e-09
2.34813e-06
7.44366e-08
2.34396e-06
2.7973e-07
2.34598e-06
2.26054e-07
2.35347e-06
3.3418e-07
2.34991e-06
3.44816e-07
3.45601e-07
2.35961e-06
2.47988e-06
8.90428e-07
2.48337e-06
1.10697e-08
2.48753e-06
9.70353e-07
2.46554e-06
-6.25285e-07
2.46261e-06
6.95192e-08
2.47188e-06
5.38689e-07
2.48239e-06
5.30158e-07
2.47782e-06
4.86679e-07
2.49216e-06
7.05035e-07
2.48786e-06
1.52408e-07
2.50117e-06
5.12822e-07
2.47631e-06
-2.46531e-07
2.47194e-06
-8.94178e-08
2.45433e-06
2.41546e-08
2.4608e-06
6.79634e-08
2.45878e-06
2.81756e-07
2.45897e-06
2.25858e-07
2.46929e-06
3.23857e-07
2.46634e-06
3.47765e-07
3.3625e-07
2.4757e-06
2.59768e-06
8.77046e-07
2.59968e-06
9.06944e-09
2.60753e-06
9.62501e-07
2.58473e-06
-6.02484e-07
2.58202e-06
7.22299e-08
2.58861e-06
5.32095e-07
2.60017e-06
5.18598e-07
2.59616e-06
4.90693e-07
2.61139e-06
6.89805e-07
2.60681e-06
1.56982e-07
2.62063e-06
4.99005e-07
2.59374e-06
-2.19643e-07
2.59043e-06
-8.61041e-08
2.57234e-06
4.22394e-08
2.57853e-06
6.17757e-08
2.57914e-06
2.81146e-07
2.57735e-06
2.27651e-07
2.58985e-06
3.11353e-07
2.58809e-06
3.49522e-07
3.2829e-07
2.59606e-06
2.72135e-06
8.63526e-07
2.72163e-06
8.78923e-09
2.73313e-06
9.50996e-07
2.70932e-06
-5.78675e-07
2.70639e-06
7.51603e-08
2.71034e-06
5.28146e-07
2.72323e-06
5.05713e-07
2.71955e-06
4.94374e-07
2.73563e-06
6.73723e-07
2.73097e-06
1.61646e-07
2.74539e-06
4.84578e-07
2.71718e-06
-1.91432e-07
2.71463e-06
-8.35495e-08
2.69644e-06
6.0428e-08
2.70157e-06
5.66444e-08
2.70494e-06
2.77779e-07
2.70115e-06
2.31435e-07
2.7148e-06
2.97704e-07
2.71476e-06
3.49559e-07
3.22417e-07
2.72064e-06
2.8512e-06
8.49596e-07
2.84962e-06
1.03711e-08
2.86459e-06
9.36027e-07
2.83953e-06
-5.5362e-07
2.83633e-06
7.83633e-08
2.83782e-06
5.2665e-07
2.85224e-06
4.91294e-07
2.84869e-06
4.97922e-07
2.86539e-06
6.57027e-07
2.86073e-06
1.663e-07
2.8757e-06
4.69609e-07
2.84686e-06
-1.62586e-07
2.84477e-06
-8.1464e-08
2.82685e-06
7.8347e-08
2.8302e-06
5.33007e-08
2.83614e-06
2.71838e-07
2.8306e-06
2.36974e-07
2.8442e-06
2.84105e-07
2.84633e-06
3.47426e-07
3.18858e-07
2.84989e-06
2.98748e-06
8.35007e-07
2.98398e-06
1.38802e-08
3.00218e-06
9.17825e-07
2.9756e-06
-5.27041e-07
2.97231e-06
8.16472e-08
2.97162e-06
5.27344e-07
2.98767e-06
4.7525e-07
2.98412e-06
5.01466e-07
3.00109e-06
6.40055e-07
2.99655e-06
1.70848e-07
3.01185e-06
4.54306e-07
2.98296e-06
-1.33694e-07
2.98108e-06
-7.95894e-08
2.96378e-06
9.56496e-08
2.96479e-06
5.22953e-08
2.97292e-06
2.63703e-07
2.96612e-06
2.4378e-07
2.97855e-06
2.71673e-07
2.98317e-06
3.42802e-07
3.17377e-07
2.98465e-06
3.13047e-06
8.19547e-07
3.12503e-06
1.93193e-08
3.14623e-06
8.96623e-07
3.11784e-06
-4.98646e-07
3.11483e-06
8.46547e-08
3.11222e-06
5.29951e-07
3.12981e-06
4.5766e-07
3.12626e-06
5.05012e-07
3.14317e-06
6.23153e-07
3.13886e-06
1.75153e-07
3.15421e-06
4.38961e-07
3.12568e-06
-1.05168e-07
3.12382e-06
-7.77275e-08
3.10746e-06
1.12005e-07
3.1058e-06
5.39614e-08
3.11568e-06
2.5382e-07
3.10828e-06
2.51184e-07
3.11866e-06
2.61286e-07
3.1259e-06
3.35568e-07
3.17358e-07
3.12592e-06
3.28042e-06
8.03041e-07
3.27307e-06
2.66617e-08
3.29708e-06
8.7262e-07
3.2666e-06
-4.68175e-07
3.2643e-06
8.69578e-08
3.26005e-06
5.34207e-07
3.27893e-06
4.3878e-07
3.2755e-06
5.08439e-07
3.292e-06
6.06656e-07
3.28813e-06
1.79015e-07
3.30319e-06
4.23904e-07
3.27525e-06
-7.72259e-08
3.27327e-06
-7.57486e-08
3.25817e-06
1.27101e-07
3.25371e-06
5.84202e-08
3.26491e-06
2.42627e-07
3.25764e-06
2.58449e-07
3.26546e-06
2.53473e-07
3.27511e-06
3.25918e-07
3.17879e-07
3.27459e-06
3.43763e-06
7.85347e-07
3.4284e-06
3.58894e-08
3.45504e-06
8.45973e-07
3.42231e-06
-4.35441e-07
3.42109e-06
8.81749e-08
3.41545e-06
5.39847e-07
3.43526e-06
4.18978e-07
3.43218e-06
5.11514e-07
3.44794e-06
5.90902e-07
3.44476e-06
1.82194e-07
3.45924e-06
4.09424e-07
3.43193e-06
-4.99211e-08
3.42975e-06
-7.35634e-08
3.41621e-06
1.40641e-07
3.409e-06
6.5626e-08
3.4211e-06
2.3053e-07
3.41466e-06
2.64882e-07
3.41968e-06
2.48461e-07
3.4313e-06
3.14293e-07
3.17943e-07
3.43124e-06
3.60241e-06
7.66346e-07
3.59129e-06
4.7016e-08
3.62046e-06
8.16799e-07
3.58539e-06
-4.00366e-07
3.5855e-06
8.80591e-08
3.57876e-06
5.46591e-07
3.59906e-06
3.98678e-07
3.59665e-06
5.13923e-07
3.6113e-06
5.76246e-07
3.60905e-06
1.84447e-07
3.62278e-06
3.95698e-07
3.59604e-06
-2.31829e-08
3.59358e-06
-7.11039e-08
3.58186e-06
1.52357e-07
3.57206e-06
7.54299e-08
3.58466e-06
2.17928e-07
3.57966e-06
2.69888e-07
3.58188e-06
2.46237e-07
3.59482e-06
3.01355e-07
3.1656e-07
3.5962e-06
3.77511e-06
7.45939e-07
3.76205e-06
6.00837e-08
3.79365e-06
7.85196e-07
3.75627e-06
-3.62987e-07
3.75779e-06
8.65377e-08
3.75024e-06
5.54138e-07
3.7706e-06
3.78323e-07
3.76922e-06
5.15297e-07
3.78244e-06
5.63029e-07
3.78129e-06
1.85597e-07
3.79424e-06
3.82749e-07
3.76791e-06
3.14608e-09
3.76512e-06
-6.83115e-08
3.75545e-06
1.62028e-07
3.74327e-06
8.7607e-08
3.75596e-06
2.05242e-07
3.75283e-06
2.73017e-07
3.75255e-06
2.46515e-07
3.76592e-06
2.87981e-07
3.12946e-07
3.76954e-06
3.95608e-06
7.24049e-07
3.94102e-06
7.51413e-08
3.97494e-06
7.51278e-07
3.93541e-06
-3.23459e-07
3.93825e-06
8.36993e-08
3.93023e-06
5.62154e-07
3.95018e-06
3.58376e-07
3.95027e-06
5.15202e-07
3.96172e-06
5.51581e-07
3.96175e-06
1.85568e-07
3.97406e-06
3.70445e-07
3.94794e-06
2.9262e-08
3.94471e-06
-6.50852e-08
3.93728e-06
1.69464e-07
3.92303e-06
1.01855e-07
3.93526e-06
1.93014e-07
3.93443e-06
2.73845e-07
3.93212e-06
2.4883e-07
3.94485e-06
2.75242e-07
3.06552e-07
3.95125e-06
4.14567e-06
7.00628e-07
4.1286e-06
9.22134e-08
4.16468e-06
7.15199e-07
4.12326e-06
-2.8204e-07
4.1272e-06
7.97603e-08
4.11909e-06
5.70267e-07
4.13814e-06
3.39325e-07
4.14017e-06
5.13168e-07
4.1496e-06
5.42153e-07
4.15073e-06
1.84441e-07
4.16266e-06
3.58514e-07
4.13658e-06
5.53406e-08
4.1327e-06
-6.12094e-08
4.12771e-06
1.74459e-07
4.11173e-06
1.17837e-07
4.12289e-06
1.81852e-07
4.12468e-06
2.72047e-07
4.12097e-06
2.52548e-07
4.13202e-06
2.64188e-07
2.97284e-07
4.14129e-06
4.34428e-06
6.75652e-07
4.32522e-06
1.11275e-07
4.36325e-06
6.77168e-07
4.32028e-06
-2.39077e-07
4.32501e-06
7.50365e-08
4.31722e-06
5.78051e-07
4.33485e-06
3.21702e-07
4.33927e-06
5.08744e-07
4.34658e-06
5.34842e-07
4.34851e-06
1.82509e-07
4.36045e-06
3.46574e-07
4.33432e-06
8.14752e-08
4.32942e-06
-5.63103e-08
4.3271e-06
1.76775e-07
4.30977e-06
1.35169e-07
4.31916e-06
1.7246e-07
4.32378e-06
2.67434e-07
4.31948e-06
2.56849e-07
4.328e-06
2.55663e-07
2.85593e-07
4.33969e-06
4.55229e-06
6.49135e-07
4.53133e-06
1.32241e-07
4.57104e-06
6.3745e-07
4.52695e-06
-1.94986e-07
4.53206e-06
6.99269e-08
4.5251e-06
5.85011e-07
4.54071e-06
3.06098e-07
4.54792e-06
5.01534e-07
4.5532e-06
5.29556e-07
4.55547e-06
1.80239e-07
4.56784e-06
3.34205e-07
4.54168e-06
1.07632e-07
4.53526e-06
-4.9888e-08
4.53577e-06
1.76267e-07
4.51766e-06
1.53275e-07
4.52447e-06
1.65653e-07
4.53187e-06
2.60032e-07
4.52798e-06
2.60745e-07
4.53362e-06
2.50015e-07
2.726e-07
4.54662e-06
4.77013e-06
6.21117e-07
4.74741e-06
1.54964e-07
4.7885e-06
5.96359e-07
4.74377e-06
-1.50251e-07
4.74878e-06
6.49169e-08
4.74321e-06
5.90573e-07
4.75613e-06
2.93178e-07
4.76644e-06
4.91232e-07
4.77001e-06
5.25978e-07
4.77201e-06
1.78246e-07
4.78518e-06
3.21029e-07
4.75924e-06
1.33574e-07
4.75071e-06
-4.13563e-08
4.75405e-06
1.72928e-07
4.73589e-06
1.71437e-07
4.73943e-06
1.62113e-07
4.74924e-06
2.50216e-07
4.74673e-06
2.63256e-07
4.74975e-06
2.46994e-07
2.5985e-07
4.7625e-06
4.99825e-06
5.91667e-07
4.97396e-06
1.7925e-07
5.01606e-06
5.54259e-07
4.97125e-06
-1.05438e-07
4.97558e-06
6.05879e-08
4.97207e-06
5.94084e-07
4.98166e-06
2.83583e-07
4.99515e-06
4.77742e-07
4.99756e-06
5.23573e-07
4.99861e-06
1.77193e-07
5.01284e-06
3.06801e-07
4.98755e-06
1.58859e-07
4.97634e-06
-3.01426e-08
4.98231e-06
1.66952e-07
4.96501e-06
1.88746e-07
4.96487e-06
1.62253e-07
4.97636e-06
2.3872e-07
4.97598e-06
2.63633e-07
4.97711e-06
2.45864e-07
2.48766e-07
4.9882e-06
5.2371e-06
5.60882e-07
5.21149e-06
2.04859e-07
5.25418e-06
5.11568e-07
5.20996e-06
-6.12117e-08
5.21292e-06
5.76303e-08
5.21218e-06
5.94824e-07
5.21796e-06
2.77799e-07
5.23438e-06
4.61317e-07
5.23636e-06
5.21602e-07
5.23583e-06
1.77714e-07
5.25117e-06
2.91471e-07
5.22713e-06
1.82895e-07
5.21285e-06
-1.58631e-08
5.22102e-06
1.58785e-07
5.20552e-06
2.04246e-07
5.20167e-06
1.66103e-07
5.21382e-06
2.26563e-07
5.21598e-06
2.61473e-07
5.21615e-06
2.45697e-07
2.40098e-07
5.22482e-06
5.48719e-06
5.28876e-07
5.46054e-06
2.31516e-07
5.50333e-06
4.68773e-07
5.46048e-06
-1.8357e-08
5.46127e-06
5.68395e-08
5.46406e-06
5.92033e-07
5.46582e-06
2.76041e-07
5.48455e-06
4.42588e-07
5.48688e-06
5.19272e-07
5.48436e-06
1.80234e-07
5.50057e-06
2.75252e-07
5.47844e-06
2.05025e-07
5.46104e-06
1.54183e-09
5.47061e-06
1.49213e-07
5.4579e-06
2.16961e-07
5.45068e-06
1.73323e-07
5.46233e-06
2.14909e-07
5.46705e-06
2.56758e-07
5.4672e-06
2.45541e-07
2.33805e-07
5.47349e-06
5.74904e-06
4.95791e-07
5.72166e-06
2.58899e-07
5.76399e-06
4.26444e-07
5.72342e-06
2.22139e-08
5.72115e-06
5.91056e-08
5.72822e-06
5.84961e-07
5.72605e-06
2.78216e-07
5.74611e-06
4.22522e-07
5.74959e-06
5.15793e-07
5.74486e-06
1.84968e-07
5.76153e-06
2.58578e-07
5.74199e-06
2.24573e-07
5.72167e-06
2.1857e-08
5.7316e-06
1.39285e-07
5.72249e-06
2.26068e-07
5.71262e-06
1.83199e-07
5.72261e-06
2.04916e-07
5.72966e-06
2.49712e-07
5.73053e-06
2.44667e-07
2.29382e-07
5.73495e-06
6.02319e-06
4.61797e-07
5.99545e-06
2.86639e-07
6.03665e-06
3.85241e-07
5.99942e-06
5.94456e-08
5.99311e-06
6.54156e-08
6.00493e-06
5.73143e-07
5.99943e-06
2.83714e-07
6.01968e-06
4.02275e-07
6.02496e-06
5.10505e-07
6.01806e-06
1.91871e-07
6.0346e-06
2.42039e-07
6.01824e-06
2.40931e-07
5.99546e-06
4.46393e-08
6.00462e-06
1.30121e-07
5.99966e-06
2.31036e-07
5.98802e-06
1.94839e-07
5.99543e-06
1.97496e-07
6.00446e-06
2.40683e-07
6.00638e-06
2.42747e-07
2.26057e-07
6.00971e-06
6.31019e-06
4.27093e-07
6.28252e-06
3.14311e-07
6.32184e-06
3.45917e-07
6.28912e-06
9.21707e-08
6.27796e-06
7.65701e-08
6.29435e-06
5.56757e-07
6.28666e-06
2.91402e-07
6.30591e-06
3.83028e-07
6.31344e-06
5.02973e-07
6.30467e-06
2.00642e-07
6.32043e-06
2.26277e-07
6.30765e-06
2.53711e-07
6.28304e-06
6.92526e-08
6.29045e-06
1.22706e-07
6.28971e-06
2.31777e-07
6.27737e-06
2.07184e-07
6.28162e-06
1.9324e-07
6.2921e-06
2.3021e-07
6.29528e-06
2.39569e-07
2.23279e-07
6.29805e-06
6.61065e-06
3.91916e-07
6.58353e-06
3.4143e-07
6.62016e-06
3.09285e-07
6.59297e-06
1.1936e-07
6.57672e-06
9.28166e-08
6.59679e-06
5.36687e-07
6.58836e-06
2.99842e-07
6.6056e-06
3.65786e-07
6.61547e-06
4.93099e-07
6.60539e-06
2.10727e-07
6.61974e-06
2.11922e-07
6.6107e-06
2.62756e-07
6.58504e-06
9.4908e-08
6.5899e-06
1.17848e-07
6.59299e-06
2.28684e-07
6.58115e-06
2.19021e-07
6.58205e-06
1.92343e-07
6.59311e-06
2.19154e-07
6.59794e-06
2.34732e-07
2.20805e-07
6.60042e-06
6.92517e-06
3.56539e-07
6.89915e-06
3.67447e-07
6.93223e-06
2.76203e-07
6.91133e-06
1.40265e-07
6.89038e-06
1.13764e-07
6.91276e-06
5.14307e-07
6.90502e-06
3.07581e-07
6.91961e-06
3.51201e-07
6.93157e-06
4.81136e-07
6.92085e-06
2.21441e-07
6.93332e-06
1.99457e-07
6.92785e-06
2.68226e-07
6.90207e-06
1.20688e-07
6.90384e-06
1.16077e-07
6.90998e-06
2.22542e-07
6.8998e-06
2.292e-07
6.89765e-06
1.94493e-07
6.90812e-06
2.08687e-07
6.91495e-06
2.27904e-07
2.18309e-07
6.91744e-06
7.2544e-06
3.21272e-07
7.23008e-06
3.91771e-07
7.25883e-06
2.47453e-07
7.24452e-06
1.5457e-07
7.21983e-06
1.38458e-07
7.24294e-06
4.91197e-07
7.23717e-06
3.13352e-07
7.24881e-06
3.39558e-07
7.26233e-06
4.6762e-07
7.25168e-06
2.32088e-07
7.26195e-06
1.89186e-07
7.2597e-06
2.70476e-07
7.23468e-06
1.45708e-07
7.23309e-06
1.17665e-07
7.24137e-06
2.1426e-07
7.23373e-06
2.36842e-07
7.22921e-06
1.99016e-07
7.23799e-06
1.99904e-07
7.24673e-06
2.19166e-07
2.15181e-07
7.24986e-06
7.59904e-06
2.86457e-07
7.57703e-06
4.13782e-07
7.60077e-06
2.23709e-07
7.59301e-06
1.62338e-07
7.56592e-06
1.65549e-07
7.58815e-06
4.68967e-07
7.58531e-06
3.16187e-07
7.59413e-06
3.30741e-07
7.60843e-06
4.53319e-07
7.59844e-06
2.42082e-07
7.60646e-06
1.81165e-07
7.6069e-06
2.70035e-07
7.58339e-06
1.69219e-07
7.57847e-06
1.22579e-07
7.58796e-06
2.04769e-07
7.58341e-06
2.41396e-07
7.57735e-06
2.0508e-07
7.5838e-06
1.93453e-07
7.59382e-06
2.09145e-07
2.10711e-07
7.59829e-06
7.9598e-06
2.52469e-07
7.94074e-06
4.3284e-07
7.95898e-06
2.05468e-07
7.95732e-06
1.64001e-07
7.92941e-06
1.93462e-07
7.94934e-06
4.49034e-07
7.94995e-06
3.15577e-07
7.95645e-06
3.24238e-07
7.97063e-06
4.39139e-07
7.96166e-06
2.51057e-07
7.96762e-06
1.75205e-07
7.97015e-06
2.67506e-07
7.94867e-06
1.90697e-07
7.94077e-06
1.30476e-07
7.95058e-06
1.94962e-07
7.9493e-06
2.42675e-07
7.9427e-06
2.11685e-07
7.94664e-06
1.8951e-07
7.95688e-06
1.98905e-07
2.04465e-07
7.96312e-06
8.33745e-06
2.19703e-07
8.32198e-06
4.4831e-07
8.33443e-06
1.93017e-07
8.3381e-06
1.60329e-07
8.3111e-06
2.20459e-07
8.32765e-06
4.32486e-07
8.33157e-06
3.11657e-07
8.33655e-06
3.1926e-07
8.34983e-06
4.25858e-07
8.34187e-06
2.59017e-07
8.34609e-06
1.70979e-07
8.35019e-06
2.6341e-07
8.33101e-06
2.09877e-07
8.32072e-06
1.40761e-07
8.32995e-06
1.85735e-07
8.332e-06
2.40622e-07
8.32584e-06
2.17847e-07
8.32743e-06
1.87922e-07
8.33683e-06
1.89501e-07
1.96489e-07
8.34481e-06
8.73279e-06
1.88574e-07
8.72151e-06
4.5959e-07
8.7281e-06
1.86425e-07
8.73609e-06
1.5234e-07
8.71161e-06
2.44945e-07
8.72377e-06
4.20326e-07
8.73052e-06
3.04909e-07
8.73501e-06
3.14764e-07
8.74686e-06
4.14012e-07
8.73958e-06
2.66296e-07
8.74224e-06
1.68321e-07
8.7475e-06
2.58148e-07
8.73109e-06
2.26291e-07
8.71902e-06
1.52828e-07
8.72696e-06
1.77796e-07
8.7322e-06
2.35382e-07
8.72734e-06
2.22699e-07
8.72699e-06
1.88274e-07
8.73493e-06
1.81563e-07
1.87506e-07
8.74391e-06
9.14669e-06
1.59501e-07
9.14021e-06
4.66074e-07
9.14105e-06
1.85584e-07
9.15218e-06
1.41211e-07
9.13155e-06
2.65568e-07
9.13888e-06
4.13e-07
9.14743e-06
2.96361e-07
9.15246e-06
3.09736e-07
9.16257e-06
4.03898e-07
9.15527e-06
2.73596e-07
9.15631e-06
1.67284e-07
9.16276e-06
2.51699e-07
9.14965e-06
2.39398e-07
9.13657e-06
1.65911e-07
9.14264e-06
1.7172e-07
9.15067e-06
2.27357e-07
9.14784e-06
2.25528e-07
9.14613e-06
1.89977e-07
9.15233e-06
1.75371e-07
1.7849e-07
9.16134e-06
9.58007e-06
1.32888e-07
9.57896e-06
4.67184e-07
9.57435e-06
1.90194e-07
9.58731e-06
1.2825e-07
9.57177e-06
2.81115e-07
9.5742e-06
4.10567e-07
9.58293e-06
2.87628e-07
9.58937e-06
3.03298e-07
9.59795e-06
3.95316e-07
9.59007e-06
2.81474e-07
9.58927e-06
1.68089e-07
9.59716e-06
2.43809e-07
9.58782e-06
2.48734e-07
9.57445e-06
1.79287e-07
9.57824e-06
1.6793e-07
9.58825e-06
2.17345e-07
9.58808e-06
2.25697e-07
9.58568e-06
1.92372e-07
9.59003e-06
1.71024e-07
1.7017e-07
9.59835e-06
1.00339e-05
1.09096e-07
1.00387e-05
4.6243e-07
1.00292e-05
1.997e-07
1.00423e-05
1.15085e-07
1.0033e-05
2.90479e-07
1.00309e-05
4.12663e-07
1.0038e-05
2.80551e-07
1.00464e-05
2.94856e-07
1.00545e-05
3.87237e-07
1.00459e-05
2.90069e-07
1.0043e-05
1.70973e-07
1.00523e-05
2.34487e-07
1.00468e-05
2.54239e-07
1.00339e-05
1.92193e-07
1.00351e-05
1.66773e-07
1.0046e-05
2.06449e-07
1.00488e-05
2.22869e-07
1.00465e-05
1.94664e-07
1.00491e-05
1.68397e-07
1.62975e-07
1.00563e-05
1.05093e-05
8.84027e-08
1.05202e-05
4.51542e-07
1.05067e-05
2.13227e-07
1.05182e-05
1.0357e-07
1.05156e-05
2.93048e-07
1.05103e-05
4.17961e-07
1.05141e-05
2.76821e-07
1.05245e-05
2.8447e-07
1.05334e-05
3.78252e-07
1.05246e-05
2.98923e-07
1.05192e-05
1.76364e-07
1.05291e-05
2.24561e-07
1.05277e-05
2.55686e-07
1.0516e-05
2.0392e-07
1.05145e-05
1.68214e-07
1.0525e-05
1.95912e-07
1.05308e-05
2.17144e-07
1.05293e-05
1.96087e-07
1.05306e-05
1.67134e-07
1.57085e-07
1.05365e-05
1.10074e-05
7.09759e-08
1.10243e-05
4.34653e-07
1.10081e-05
2.29416e-07
1.10161e-05
9.56511e-08
1.10204e-05
2.88678e-07
1.10141e-05
4.24256e-07
1.10134e-05
2.7757e-07
1.10247e-05
2.73195e-07
1.10356e-05
3.67328e-07
1.10274e-05
3.07112e-07
1.10195e-05
1.843e-07
1.10288e-05
2.15257e-07
1.10312e-05
2.53291e-07
1.10213e-05
2.13747e-07
1.10178e-05
1.71724e-07
1.10269e-05
1.86858e-07
1.1035e-05
2.09066e-07
1.10351e-05
1.95973e-07
1.10355e-05
1.66698e-07
1.52498e-07
1.10401e-05
1.15295e-05
5.68458e-08
1.15517e-05
4.12449e-07
1.15346e-05
2.46499e-07
1.15373e-05
9.29573e-08
1.15481e-05
2.77889e-07
1.15432e-05
4.29152e-07
1.15378e-05
2.83002e-07
1.15483e-05
2.6269e-07
1.15616e-05
3.54019e-07
1.15549e-05
3.13779e-07
1.1545e-05
1.94197e-07
1.15526e-05
2.07715e-07
1.15582e-05
2.47679e-07
1.1551e-05
2.20928e-07
1.15461e-05
1.76648e-07
1.1553e-05
1.79966e-07
1.15624e-05
1.99609e-07
1.15646e-05
1.93815e-07
1.15647e-05
1.6658e-07
1.48972e-07
1.15682e-05
1.20768e-05
4.59057e-08
1.21031e-05
3.86076e-07
1.2087e-05
2.62656e-07
1.20837e-05
9.62353e-08
1.20995e-05
2.62129e-07
1.20981e-05
4.30505e-07
1.2089e-05
2.9215e-07
1.20968e-05
2.54856e-07
1.21122e-05
3.38584e-07
1.21079e-05
3.18101e-07
1.20969e-05
2.05179e-07
1.2102e-05
2.02641e-07
1.21098e-05
2.39863e-07
1.21056e-05
2.25091e-07
1.21003e-05
1.81952e-07
1.21048e-05
1.75487e-07
1.21145e-05
1.89968e-07
1.21189e-05
1.89422e-07
1.21193e-05
1.66177e-07
1.46318e-07
1.21219e-05
1.26506e-05
3.79108e-08
1.26798e-05
3.5688e-07
1.26662e-05
2.76236e-07
1.26571e-05
1.05314e-07
1.26758e-05
2.4349e-07
1.26795e-05
4.26799e-07
1.2668e-05
3.03656e-07
1.26719e-05
2.50889e-07
1.26886e-05
3.21945e-07
1.26873e-05
3.19418e-07
1.26761e-05
2.16346e-07
1.26785e-05
2.0021e-07
1.26874e-05
2.30979e-07
1.26863e-05
2.2616e-07
1.26815e-05
1.86741e-07
1.26839e-05
1.73127e-07
1.26927e-05
1.81173e-07
1.26989e-05
1.83215e-07
1.27002e-05
1.6485e-07
1.4426e-07
1.27023e-05
1.32523e-05
3.25053e-08
1.3283e-05
3.26231e-07
1.32732e-05
2.85998e-07
1.32594e-05
1.1911e-07
1.32785e-05
2.24421e-07
1.32876e-05
4.17737e-07
1.32755e-05
3.15743e-07
1.32753e-05
2.5102e-07
1.32919e-05
3.05355e-07
1.32939e-05
3.17455e-07
1.32836e-05
2.26686e-07
1.32836e-05
2.00193e-07
1.32924e-05
2.22131e-07
1.32942e-05
2.24412e-07
1.32905e-05
1.90382e-07
1.32915e-05
1.72183e-07
1.32988e-05
1.73806e-07
1.3306e-05
1.76062e-07
1.33087e-05
1.62106e-07
1.42474e-07
1.33105e-05
1.38834e-05
2.92413e-08
1.39145e-05
2.95188e-07
1.39092e-05
2.91293e-07
1.38921e-05
1.36178e-07
1.39092e-05
2.07371e-07
1.39229e-05
4.04002e-07
1.39122e-05
3.26413e-07
1.39086e-05
2.54636e-07
1.39238e-05
2.90118e-07
1.3929e-05
3.12297e-07
1.39203e-05
2.35376e-07
1.39185e-05
2.02052e-07
1.39264e-05
2.14137e-07
1.39304e-05
2.20428e-07
1.39284e-05
1.92407e-07
1.39286e-05
1.7199e-07
1.39346e-05
1.67847e-07
1.39417e-05
1.68897e-07
1.39458e-05
1.58044e-07
1.404e-07
1.39479e-05
1.45453e-05
2.7614e-08
1.45752e-05
2.65285e-07
1.45749e-05
2.91608e-07
1.45559e-05
1.55161e-07
1.45692e-05
1.94096e-07
1.45866e-05
3.86601e-07
1.4579e-05
3.33995e-07
1.45731e-05
2.60533e-07
1.45861e-05
2.77126e-07
1.45938e-05
3.04583e-07
1.45875e-05
2.41691e-07
1.45844e-05
2.05113e-07
1.45911e-05
2.07419e-07
1.45966e-05
2.14956e-07
1.45964e-05
1.92632e-07
1.45965e-05
1.71907e-07
1.46012e-05
1.63152e-07
1.4608e-05
1.6211e-07
1.46127e-05
1.53284e-07
1.37615e-07
1.46155e-05
1.52394e-05
2.71122e-08
1.52672e-05
2.37426e-07
1.52716e-05
2.87248e-07
1.52514e-05
1.75348e-07
1.52598e-05
1.85739e-07
1.52798e-05
3.66595e-07
1.52766e-05
3.37151e-07
1.52699e-05
2.67231e-07
1.52805e-05
2.66593e-07
1.52898e-05
2.95197e-07
1.52862e-05
2.45323e-07
1.52828e-05
2.0855e-07
1.5288e-05
2.02144e-07
1.52944e-05
2.08653e-07
1.52958e-05
1.91206e-07
1.52963e-05
1.71381e-07
1.53e-05
1.59474e-07
1.53063e-05
1.55769e-07
1.53113e-05
1.48325e-07
1.34192e-07
1.53147e-05
1.59671e-05
2.7316e-08
1.59923e-05
2.12294e-07
1.59998e-05
2.79714e-07
1.59799e-05
1.95288e-07
1.5983e-05
1.82587e-07
1.60044e-05
3.45168e-07
1.60065e-05
3.3511e-07
1.60004e-05
2.73335e-07
1.60086e-05
2.5832e-07
1.60189e-05
2.84933e-07
1.60178e-05
2.4641e-07
1.60148e-05
2.11581e-07
1.60187e-05
1.98253e-07
1.60252e-05
2.02089e-07
1.60282e-05
1.8821e-07
1.60294e-05
1.70263e-07
1.60325e-05
1.56367e-07
1.60382e-05
1.50018e-07
1.60433e-05
1.43239e-07
1.30522e-07
1.6047e-05
1.673e-05
2.79585e-08
1.67485e-05
1.93754e-07
1.67596e-05
2.68615e-07
1.67431e-05
2.118e-07
1.67423e-05
1.83338e-07
1.67635e-05
3.2398e-07
1.67703e-05
3.28334e-07
1.67658e-05
2.77834e-07
1.67722e-05
2.51916e-07
1.67827e-05
2.74403e-07
1.6784e-05
2.45191e-07
1.67818e-05
2.1378e-07
1.67847e-05
1.95304e-07
1.6791e-05
1.95763e-07
1.67953e-05
1.8397e-07
1.67973e-05
1.68235e-07
1.68e-05
1.53634e-07
1.68052e-05
1.44897e-07
1.68105e-05
1.37935e-07
1.26839e-07
1.68141e-05
1.75296e-05
2.8729e-08
1.7546e-05
1.77358e-07
1.75576e-05
2.57032e-07
1.75437e-05
2.2562e-07
1.75402e-05
1.86857e-07
1.75598e-05
3.04455e-07
1.757e-05
3.18065e-07
1.75677e-05
2.8013e-07
1.75727e-05
2.46947e-07
1.7583e-05
2.6408e-07
1.75863e-05
2.41928e-07
1.75852e-05
2.14833e-07
1.75875e-05
1.93021e-07
1.75935e-05
1.89804e-07
1.75984e-05
1.79023e-07
1.76016e-05
1.6508e-07
1.76043e-05
1.50915e-07
1.76088e-05
1.40431e-07
1.76141e-05
1.32581e-07
1.22953e-07
1.7618e-05
1.83676e-05
2.94453e-08
1.83804e-05
1.64581e-07
1.83933e-05
2.4411e-07
1.83834e-05
2.35591e-07
1.83784e-05
1.91771e-07
1.83952e-05
2.8771e-07
1.84076e-05
3.05627e-07
1.84077e-05
2.80103e-07
1.84117e-05
2.42897e-07
1.84216e-05
2.54208e-07
1.84265e-05
2.36955e-07
1.84269e-05
2.14513e-07
1.84288e-05
1.91103e-07
1.84344e-05
1.84225e-07
1.84396e-05
1.73768e-07
1.84437e-05
1.61009e-07
1.8447e-05
1.47649e-07
1.84508e-05
1.36573e-07
1.84559e-05
1.27456e-07
1.18637e-07
1.84603e-05
1.92459e-05
2.99483e-08
1.9256e-05
1.54419e-07
1.92693e-05
2.30903e-07
1.9263e-05
2.41873e-07
1.92577e-05
1.97005e-07
1.92717e-05
2.7372e-07
1.92852e-05
2.92174e-07
1.92874e-05
2.77838e-07
1.9291e-05
2.39329e-07
1.93002e-05
2.45013e-07
1.93065e-05
2.30642e-07
1.93084e-05
2.12683e-07
1.93104e-05
1.89102e-07
1.93154e-05
1.79206e-07
1.93209e-05
1.68198e-07
1.93255e-05
1.56485e-07
1.93295e-05
1.43639e-07
1.93332e-05