/*--------------------------------*- C++ -*----------------------------------*\
| =========                 |                                                 |
| \\      /  F ield         | OpenFOAM: The Open Source CFD Toolbox           |
|  \\    /   O peration     | Version:  2506                                  |
|   \\  /    A nd           | Website:  www.openfoam.com                      |
|    \\/     M anipulation  |                                                 |
\*---------------------------------------------------------------------------*/
FoamFile
{
    version     2.0;
    format      ascii;
    arch        "LSB;label=32;scalar=64";
    class       surfaceScalarField;
    location    "5.75";
    object      phi;
}
// * * * * * * * * * * * * * * * * * * * * * * * * * * * * * * * * * * * * * //

dimensions      [0 3 -1 0 0 0 0];

oriented        oriented;

internalField   nonuniform List<scalar> 
19000
(
1.20241e-06
-1.24894e-06
1.24333e-06
6.27704e-07
1.12944e-06
9.96957e-07
1.02555e-06
2.01889e-08
1.16857e-06
-2.15161e-06
1.26322e-06
-1.01411e-06
1.21277e-06
-7.93824e-08
1.20032e-06
6.80257e-07
1.18807e-06
9.54043e-08
1.16758e-06
1.82558e-08
1.16136e-06
-3.22256e-07
1.16165e-06
4.64316e-08
1.18423e-06
-7.71182e-08
1.16033e-06
1.64413e-07
1.16576e-06
2.45158e-07
1.16011e-06
2.5456e-07
1.1673e-06
3.26465e-07
1.17366e-06
3.89517e-07
1.16917e-06
3.1159e-07
3.86927e-07
1.17177e-06
1.26479e-06
-1.28947e-06
1.31813e-06
5.74357e-07
1.19616e-06
1.11893e-06
1.09114e-06
1.25209e-07
1.23227e-06
-2.29274e-06
1.3218e-06
-1.10365e-06
1.27168e-06
-2.92657e-08
1.27021e-06
6.81733e-07
1.25773e-06
1.07881e-07
1.24166e-06
3.43258e-08
1.23201e-06
-3.12601e-07
1.23128e-06
4.71561e-08
1.24928e-06
-9.51135e-08
1.22842e-06
1.85273e-07
1.22336e-06
2.50212e-07
1.22904e-06
2.48887e-07
1.21612e-06
3.39386e-07
1.24836e-06
3.57274e-07
1.21324e-06
3.46705e-07
3.4563e-07
1.25454e-06
1.32617e-06
-1.33286e-06
1.40659e-06
4.93936e-07
1.28443e-06
1.24109e-06
1.1727e-06
2.36938e-07
1.2985e-06
-2.41854e-06
1.38749e-06
-1.19264e-06
1.33731e-06
2.09213e-08
1.34961e-06
6.6943e-07
1.33645e-06
1.2104e-07
1.32941e-06
4.13621e-08
1.30915e-06
-2.9234e-07
1.31251e-06
4.37996e-08
1.31801e-06
-1.00617e-07
1.31024e-06
1.93046e-07
1.28773e-06
2.72718e-07
1.30217e-06
2.34455e-07
1.27985e-06
3.61706e-07
1.30549e-06
3.31631e-07
1.28694e-06
3.6525e-07
3.41586e-07
1.29099e-06
1.38583e-06
-1.37459e-06
1.49932e-06
3.80448e-07
1.38707e-06
1.35334e-06
1.27013e-06
3.53879e-07
1.36384e-06
-2.51225e-06
1.45388e-06
-1.28268e-06
1.40969e-06
6.51174e-08
1.43389e-06
6.45231e-07
1.4201e-06
1.34826e-07
1.41846e-06
4.2999e-08
1.38731e-06
-2.61182e-07
1.39205e-06
3.90592e-08
1.38777e-06
-9.6341e-08
1.38732e-06
1.93494e-07
1.36066e-06
2.99376e-07
1.36854e-06
2.26583e-07
1.35445e-06
3.75789e-07
1.36375e-06
3.22339e-07
1.36114e-06
3.67855e-07
3.48805e-07
1.35392e-06
1.44282e-06
-1.40906e-06
1.58617e-06
2.37104e-07
1.49592e-06
1.44359e-06
1.37657e-06
4.73229e-07
1.42293e-06
-2.55861e-06
1.51365e-06
-1.37339e-06
1.48831e-06
9.04486e-08
1.51923e-06
6.14317e-07
1.50614e-06
1.47913e-07
1.50154e-06
4.7597e-08
1.46378e-06
-2.23418e-07
1.46496e-06
3.78814e-08
1.45727e-06
-8.86585e-08
1.45898e-06
1.91785e-07
1.43812e-06
3.2024e-07
1.43666e-06
2.28044e-07
1.42969e-06
3.82757e-07
1.43025e-06
3.21776e-07
1.43208e-06
3.66032e-07
3.56087e-07
1.4248e-06
1.49759e-06
-1.43097e-06
1.66023e-06
7.44558e-08
1.6033e-06
1.50052e-06
1.48368e-06
5.92851e-07
1.47499e-06
-2.54992e-06
1.5627e-06
-1.4611e-06
1.57094e-06
8.2213e-08
1.60551e-06
5.79743e-07
1.59328e-06
1.60149e-07
1.57901e-06
6.18612e-08
1.53817e-06
-1.82581e-07
1.53391e-06
4.21465e-08
1.52634e-06
-8.10893e-08
1.52983e-06
1.88294e-07
1.51698e-06
3.33088e-07
1.51051e-06
2.34517e-07
1.50514e-06
3.88128e-07
1.50176e-06
3.2515e-07
1.50429e-06
3.63503e-07
3.6253e-07
1.49785e-06
1.55265e-06
-1.4374e-06
1.71988e-06
-9.27798e-08
1.70266e-06
1.51773e-06
1.58625e-06
7.0926e-07
1.52618e-06
-2.48984e-06
1.60467e-06
-1.53959e-06
1.65334e-06
3.35411e-08
1.69292e-06
5.40166e-07
1.67997e-06
1.73094e-07
1.654e-06
8.78303e-08
1.61086e-06
-1.39432e-07
1.60193e-06
5.10703e-08
1.59483e-06
-7.39893e-08
1.60134e-06
1.81781e-07
1.59594e-06
3.38497e-07
1.58912e-06
2.41334e-07
1.58383e-06
3.93421e-07
1.57786e-06
3.31117e-07
1.58048e-06
3.60882e-07
3.68079e-07
1.57493e-06
1.61176e-06
-1.42902e-06
1.76818e-06
-2.49208e-07
1.78932e-06
1.4966e-06
1.68305e-06
8.1553e-07
1.58517e-06
-2.39197e-06
1.64808e-06
-1.6025e-06
1.73117e-06
-4.95476e-08
1.77871e-06
4.92625e-07
1.76411e-06
1.87701e-07
1.72844e-06
1.23499e-07
1.68274e-06
-9.37332e-08
1.67031e-06
6.35006e-08
1.66276e-06
-6.64424e-08
1.67269e-06
1.71852e-07
1.67398e-06
3.37206e-07
1.66998e-06
2.45336e-07
1.66655e-06
3.96854e-07
1.65934e-06
3.38321e-07
1.6622e-06
3.58026e-07
3.72447e-07
1.65783e-06
1.67785e-06
-1.4093e-06
1.81054e-06
-3.81899e-07
1.86166e-06
1.44548e-06
1.77464e-06
9.02551e-07
1.65684e-06
-2.27417e-06
1.70016e-06
-1.64583e-06
1.8023e-06
-1.51688e-07
1.85844e-06
4.36485e-07
1.84344e-06
2.02701e-07
1.80269e-06
1.64254e-07
1.75516e-06
-4.62042e-08
1.73985e-06
7.88108e-08
1.73056e-06
-5.71587e-08
1.74309e-06
1.59326e-07
1.75023e-06
3.30067e-07
1.75065e-06
2.44915e-07
1.75171e-06
3.95796e-07
1.74536e-06
3.44665e-07
1.74922e-06
3.54165e-07
3.75212e-07
1.74646e-06
1.75186e-06
-1.38243e-06
1.85292e-06
-4.82965e-07
1.92232e-06
1.37609e-06
1.86203e-06
9.62843e-07
1.74055e-06
-2.15269e-06
1.7636e-06
-1.66888e-06
1.8673e-06
-2.55385e-07
1.92897e-06
3.74821e-07
1.91647e-06
2.15198e-07
1.87654e-06
2.04187e-07
1.82943e-06
9.04434e-10
1.81178e-06
9.64556e-08
1.79947e-06
-4.48508e-08
1.81285e-06
1.45948e-07
1.82448e-06
3.18441e-07
1.82948e-06
2.39915e-07
1.83678e-06
3.88498e-07
1.83324e-06
3.48206e-07
1.83903e-06
3.48368e-07
3.75795e-07
1.83845e-06
1.83314e-06
-1.35183e-06
1.90116e-06
-5.50978e-07
1.97788e-06
1.29937e-06
1.94678e-06
9.9394e-07
1.83288e-06
-2.03879e-06
1.83772e-06
-1.67372e-06
1.92886e-06
-3.46529e-07
1.99072e-06
3.12958e-07
1.98351e-06
2.22409e-07
1.95002e-06
2.37684e-07
1.90652e-06
4.44037e-08
1.88766e-06
1.15319e-07
1.87161e-06
-2.88034e-08
1.88362e-06
1.33939e-07
1.89771e-06
3.04347e-07
1.90609e-06
2.31536e-07
1.91965e-06
3.74934e-07
1.91982e-06
3.4804e-07
1.92794e-06
3.40249e-07
3.73661e-07
1.93007e-06
1.92074e-06
-1.31973e-06
1.96011e-06
-5.9034e-07
2.03636e-06
1.22312e-06
2.03121e-06
9.99083e-07
1.93043e-06
-1.93801e-06
1.9209e-06
-1.66419e-06
1.99138e-06
-4.17012e-07
2.04819e-06
2.56155e-07
2.04744e-06
2.23152e-07
2.02398e-06
2.61152e-07
1.987e-06
8.13751e-08
1.96873e-06
1.33596e-07
1.94939e-06
-9.4676e-09
1.95806e-06
1.25274e-07
1.97225e-06
2.90156e-07
1.98181e-06
2.21977e-07
1.99987e-06
3.56875e-07
2.00335e-06
3.44554e-07
2.01328e-06
3.30318e-07
3.68644e-07
2.0183e-06
2.01398e-06
-1.28753e-06
2.03234e-06
-6.08695e-07
2.10385e-06
1.1516e-06
2.11789e-06
9.85048e-07
2.03104e-06
-1.85116e-06
2.01184e-06
-1.64499e-06
2.0599e-06
-4.65077e-07
2.10812e-06
2.07937e-07
2.11294e-06
2.18331e-07
2.10012e-06
2.73974e-07
2.07123e-06
1.10265e-07
2.05552e-06
1.49303e-07
2.0346e-06
1.14509e-08
2.03904e-06
1.20837e-07
2.05141e-06
2.7779e-07
2.05976e-06
2.13618e-07
2.07944e-06
3.372e-07
2.0849e-06
3.39094e-07
2.09542e-06
3.19803e-07
3.61133e-07
2.10293e-06
2.11251e-06
-1.25604e-06
2.1176e-06
-6.13786e-07
2.18275e-06
1.08645e-06
2.20887e-06
9.58935e-07
2.13393e-06
-1.77622e-06
2.10945e-06
-1.62051e-06
2.13814e-06
-4.93767e-07
2.17656e-06
1.69518e-07
2.18465e-06
2.10241e-07
2.18056e-06
2.78059e-07
2.15961e-06
1.31217e-07
2.14789e-06
1.61024e-07
2.12771e-06
3.16298e-08
2.12851e-06
1.20036e-07
2.13835e-06
2.67958e-07
2.14397e-06
2.07995e-07
2.16248e-06
3.1869e-07
2.16833e-06
3.33246e-07
2.17801e-06
3.10119e-07
3.51975e-07
2.18717e-06
2.21613e-06
-1.22568e-06
2.2138e-06
-6.11448e-07
2.27241e-06
1.02783e-06
2.30534e-06
9.2601e-07
2.2393e-06
-1.71019e-06
2.21273e-06
-1.59393e-06
2.22724e-06
-5.08279e-07
2.25663e-06
1.40122e-07
2.26559e-06
2.0128e-07
2.26724e-06
2.76412e-07
2.25289e-06
1.45565e-07
2.24557e-06
1.6835e-07
2.22809e-06
4.91095e-08
2.22685e-06
1.2127e-07
2.23474e-06
2.60076e-07
2.23747e-06
2.05262e-07
2.2532e-06
3.02959e-07
2.25835e-06
3.281e-07
2.26616e-06
3.0231e-07
3.4216e-07
2.27597e-06
2.3247e-06
-1.19651e-06
2.31848e-06
-6.05227e-07
2.37107e-06
9.75241e-07
2.4078e-06
8.89282e-07
2.34792e-06
-1.65031e-06
2.32086e-06
-1.56687e-06
2.32619e-06
-5.13612e-07
2.3485e-06
1.17818e-07
2.35681e-06
1.92969e-07
2.36148e-06
2.71744e-07
2.35206e-06
1.54982e-07
2.34864e-06
1.71772e-07
2.33478e-06
6.29661e-08
2.33316e-06
1.22891e-07
2.34028e-06
2.52954e-07
2.34106e-06
2.04482e-07
2.35384e-06
2.90183e-07
2.35806e-06
3.23881e-07
2.36364e-06
2.96727e-07
3.32441e-07
2.37336e-06
2.43815e-06
-1.16827e-06
2.42996e-06
-5.97035e-07
2.47738e-06
9.27827e-07
2.51648e-06
8.50178e-07
2.46066e-06
-1.59449e-06
2.43351e-06
-1.53971e-06
2.43331e-06
-5.13416e-07
2.45074e-06
1.00394e-07
2.45799e-06
1.85716e-07
2.46394e-06
2.65794e-07
2.45806e-06
1.60859e-07
2.4576e-06
1.72237e-07
2.44723e-06
7.3333e-08
2.44617e-06
1.23948e-07
2.45346e-06
2.45665e-07
2.4535e-06
2.04444e-07
2.46404e-06
2.79641e-07
2.46779e-06
3.20137e-07
2.47145e-06
2.93061e-07
3.23179e-07
2.48071e-06
2.55657e-06
-1.14054e-06
2.54746e-06
-5.87924e-07
2.59074e-06
8.84545e-07
2.63155e-06
8.09369e-07
2.57828e-06
-1.54122e-06
2.55081e-06
-1.51224e-06
2.54732e-06
-5.09931e-07
2.56178e-06
8.59374e-08
2.56836e-06
1.79137e-07
2.57478e-06
2.59375e-07
2.5715e-06
1.64132e-07
2.57304e-06
1.70702e-07
2.5654e-06
8.0967e-08
2.56505e-06
1.243e-07
2.57275e-06
2.37965e-07
2.57286e-06
2.04333e-07
2.582e-06
2.70498e-07
2.5859e-06
3.16239e-07
2.58832e-06
2.90649e-07
3.14425e-07
2.59707e-06
2.68017e-06
-1.11288e-06
2.67081e-06
-5.78559e-07
2.71108e-06
8.44275e-07
2.75319e-06
7.67257e-07
2.70136e-06
-1.48939e-06
2.67318e-06
-1.48407e-06
2.66768e-06
-5.04422e-07
2.68054e-06
7.30727e-08
2.68713e-06
1.72549e-07
2.69378e-06
2.52721e-07
2.69252e-06
1.65396e-07
2.69531e-06
1.67907e-07
2.68952e-06
8.67638e-08
2.68955e-06
1.24271e-07
2.69734e-06
2.30168e-07
2.69776e-06
2.0392e-07
2.70599e-06
2.62265e-07
2.71044e-06
3.1179e-07
2.71226e-06
2.88831e-07
3.06114e-07
2.72057e-06
2.8093e-06
-1.08491e-06
2.80013e-06
-5.69393e-07
2.83842e-06
8.05982e-07
2.88153e-06
7.24148e-07
2.83036e-06
-1.43823e-06
2.80117e-06
-1.45487e-06
2.79436e-06
-4.97617e-07
2.80648e-06
6.09507e-08
2.81371e-06
1.65322e-07
2.82062e-06
2.45814e-07
2.82093e-06
1.6508e-07
2.8245e-06
1.64343e-07
2.8198e-06
9.14665e-08
2.8198e-06
1.24268e-07
2.8272e-06
2.22771e-07
2.82774e-06
2.03371e-07
2.83519e-06
2.5482e-07
2.84024e-06
3.06741e-07
2.8419e-06
2.87165e-07
2.98207e-07
2.84981e-06
2.94435e-06
-1.05636e-06
2.93567e-06
-5.60716e-07
2.9728e-06
7.68853e-07
3.01666e-06
6.80281e-07
2.96567e-06
-1.38723e-06
2.93525e-06
-1.42445e-06
2.92761e-06
-4.89975e-07
2.93944e-06
4.91218e-08
2.94772e-06
1.57042e-07
2.95495e-06
2.38583e-07
2.95647e-06
1.63563e-07
2.9605e-06
1.60307e-07
2.95638e-06
9.559e-08
2.95609e-06
1.24562e-07
2.96271e-06
2.16144e-07
2.96312e-06
2.02967e-07
2.96973e-06
2.48204e-07
2.97521e-06
3.01263e-07
2.97692e-06
2.8546e-07
2.90727e-07
2.9844e-06
3.08574e-06
-1.02709e-06
3.07771e-06
-5.52685e-07
3.1142e-06
7.32362e-07
3.15864e-06
6.35838e-07
3.10762e-06
-1.33621e-06
3.07588e-06
-1.39271e-06
3.06771e-06
-4.81809e-07
3.07944e-06
3.73962e-08
3.08894e-06
1.47535e-07
3.09656e-06
2.3097e-07
3.09892e-06
1.61202e-07
3.10324e-06
1.55981e-07
3.09939e-06
9.9446e-08
3.09868e-06
1.25268e-07
3.10441e-06
2.10419e-07
3.10449e-06
2.02884e-07
3.11022e-06
2.42475e-07
3.11596e-06
2.95524e-07
3.11773e-06
2.8369e-07
2.83747e-07
3.12471e-06
3.23387e-06
-9.97051e-07
3.22656e-06
-5.45372e-07
3.26267e-06
6.96245e-07
3.30752e-06
5.90994e-07
3.25651e-06
-1.2852e-06
3.22344e-06
-1.35964e-06
3.21498e-06
-4.73348e-07
3.22663e-06
2.57428e-08
3.23734e-06
1.36825e-07
3.24536e-06
2.22956e-07
3.24824e-06
1.58317e-07
3.25275e-06
1.51467e-07
3.249e-06
1.03196e-07
3.24788e-06
1.26397e-07
3.25276e-06
2.05539e-07
3.2525e-06
2.03137e-07
3.25735e-06
2.37625e-07
3.26329e-06
2.89588e-07
3.26512e-06
2.81854e-07
2.7737e-07
3.2715e-06
3.38913e-06
-9.66248e-07
3.38257e-06
-5.38809e-07
3.41839e-06
6.60425e-07
3.46343e-06
5.45953e-07
3.41262e-06
-1.2344e-06
3.3783e-06
-1.32532e-06
3.36972e-06
-4.64761e-07
3.38124e-06
1.42228e-08
3.39299e-06
1.25074e-07
3.4014e-06
2.14541e-07
3.40454e-06
1.55179e-07
3.40919e-06
1.46815e-07
3.4055e-06
1.06888e-07
3.40399e-06
1.2791e-07
3.40818e-06
2.01342e-07
3.40771e-06
2.03609e-07
3.41175e-06
2.33583e-07
3.41789e-06
2.83452e-07
3.4199e-06
2.7984e-07
2.71723e-07
3.42555e-06
3.55186e-06
-9.347e-07
3.54607e-06
-5.33017e-07
3.58159e-06
6.24907e-07
3.62657e-06
5.00967e-07
3.57626e-06
-1.18408e-06
3.5408e-06
-1.28987e-06
3.53223e-06
-4.56187e-07
3.54352e-06
2.93701e-09
3.55606e-06
1.12529e-07
3.56487e-06
2.05738e-07
3.56805e-06
1.51991e-07
3.57282e-06
1.42046e-07
3.56923e-06
1.10482e-07
3.56738e-06
1.2976e-07
3.57108e-06
1.97636e-07
3.57058e-06
2.04108e-07
3.57393e-06
2.3024e-07
3.58025e-06
2.77131e-07
3.58266e-06
2.77426e-07
2.66844e-07
3.58754e-06
3.72242e-06
-9.02419e-07
3.7174e-06
-5.27996e-07
3.75262e-06
5.89686e-07
3.79726e-06
4.56331e-07
3.74773e-06
-1.13455e-06
3.71126e-06
-1.2534e-06
3.70282e-06
-4.47742e-07
3.71377e-06
-8.01759e-09
3.72685e-06
9.9454e-08
3.73603e-06
1.96557e-07
3.73913e-06
1.48886e-07
3.74399e-06
1.37191e-07
3.74061e-06
1.13858e-07
3.73844e-06
1.31936e-07
3.74183e-06
1.94246e-07
3.74153e-06
2.04407e-07
3.74429e-06
2.27482e-07
3.75073e-06
2.70685e-07
3.75379e-06
2.74368e-07
2.62618e-07
3.75802e-06
3.90119e-06
-8.69416e-07
3.89688e-06
-5.23692e-07
3.93187e-06
5.54696e-07
3.97586e-06
4.12345e-07
3.92738e-06
-1.08607e-06
3.89001e-06
-1.21603e-06
3.88177e-06
-4.39496e-07
3.89234e-06
-1.85875e-08
3.9057e-06
8.60932e-08
3.91526e-06
1.86995e-07
3.9182e-06
1.45944e-07
3.9231e-06
1.32287e-07
3.9201e-06
1.16862e-07
3.91756e-06
1.34471e-07
3.92078e-06
1.91025e-07
3.92087e-06
2.04327e-07
3.9232e-06
2.25143e-07
3.92964e-06
2.64249e-07
3.93347e-06
2.70541e-07
2.58729e-07
3.93736e-06
4.08854e-06
-8.3571e-07
4.08484e-06
-5.19985e-07
4.11972e-06
5.19811e-07
4.16279e-06
3.69279e-07
4.11559e-06
-1.03888e-06
4.07741e-06
-1.17785e-06
4.06937e-06
-4.31459e-07
4.07956e-06
-2.87713e-08
4.09301e-06
7.26386e-08
4.10296e-06
1.77046e-07
4.1057e-06
1.43203e-07
4.1106e-06
1.27391e-07
4.10812e-06
1.19344e-07
4.10518e-06
1.37404e-07
4.10828e-06
1.87928e-07
4.10888e-06
2.0373e-07
4.11099e-06
2.2303e-07
4.11727e-06
2.57965e-07
4.12183e-06
2.65988e-07
2.54794e-07
4.12576e-06
4.28494e-06
-8.01349e-07
4.28164e-06
-5.16686e-07
4.31657e-06
4.84882e-07
4.35851e-06
3.27337e-07
4.31275e-06
-9.93117e-07
4.27387e-06
-1.13896e-06
4.26599e-06
-4.23582e-07
4.27581e-06
-3.85875e-08
4.28923e-06
5.92171e-08
4.29957e-06
1.66703e-07
4.30209e-06
1.40678e-07
4.30692e-06
1.22564e-07
4.30507e-06
1.21198e-07
4.30175e-06
1.40724e-07
4.30463e-06
1.85046e-07
4.30582e-06
2.02537e-07
4.30789e-06
2.20959e-07
4.31396e-06
2.51901e-07
4.31906e-06
2.60889e-07
2.50514e-07
4.32334e-06
4.49084e-06
-7.66417e-07
4.48772e-06
-5.13569e-07
4.52281e-06
4.49795e-07
4.5635e-06
2.86646e-07
4.51928e-06
-9.489e-07
4.47983e-06
-1.09951e-06
4.47202e-06
-4.15774e-07
4.48148e-06
-4.80452e-08
4.4948e-06
4.58985e-08
4.50553e-06
1.55968e-07
4.50783e-06
1.38377e-07
4.51252e-06
1.17873e-07
4.51137e-06
1.22356e-07
4.50771e-06
1.44376e-07
4.51021e-06
1.82547e-07
4.51202e-06
2.0073e-07
4.51415e-06
2.18825e-07
4.52002e-06
2.46034e-07
4.52553e-06
2.55382e-07
2.45837e-07
4.5302e-06
4.70673e-06
-7.31028e-07
4.70358e-06
-5.10422e-07
4.73886e-06
4.14512e-07
4.77824e-06
2.47268e-07
4.73561e-06
-9.06268e-07
4.69577e-06
-1.05967e-06
4.68792e-06
-4.07931e-07
4.697e-06
-5.71169e-08
4.71018e-06
3.27166e-08
4.72129e-06
1.44853e-07
4.72338e-06
1.36293e-07
4.72786e-06
1.13394e-07
4.72745e-06
1.22763e-07
4.72358e-06
1.4825e-07
4.72551e-06
1.80615e-07
4.7279e-06
1.98336e-07
4.73016e-06
2.16565e-07
4.73584e-06
2.40358e-07
4.74172e-06
2.49503e-07
2.40893e-07
4.74666e-06
4.93309e-06
-6.95318e-07
4.92975e-06
-5.07083e-07
4.96516e-06
3.79106e-07
5.00321e-06
2.09209e-07
4.96217e-06
-8.65222e-07
4.92217e-06
-1.01967e-06
4.91424e-06
-3.99996e-07
4.92283e-06
-6.57074e-08
4.93585e-06
1.96983e-08
4.94733e-06
1.33366e-07
4.94922e-06
1.34407e-07
4.95339e-06
1.09226e-07
4.95376e-06
1.22386e-07
4.94987e-06
1.5214e-07
4.95109e-06
1.79399e-07
4.95404e-06
1.95387e-07
4.95656e-06
2.14039e-07
4.9619e-06
2.35021e-07
4.96811e-06
2.43291e-07
2.35785e-07
4.97322e-06
5.17042e-06
-6.59423e-07
5.16681e-06
-5.03472e-07
5.20214e-06
3.43775e-07
5.23893e-06
1.72423e-07
5.19944e-06
-8.25734e-07
5.15953e-06
-9.79759e-07
5.15151e-06
-3.91975e-07
5.1595e-06
-7.36955e-08
5.17228e-06
6.91269e-09
5.18414e-06
1.21513e-07
5.18589e-06
1.32654e-07
5.18959e-06
1.05522e-07
5.1908e-06
1.21175e-07
5.18718e-06
1.55761e-07
5.18756e-06
1.79022e-07
5.19094e-06
1.92011e-07
5.19396e-06
2.11021e-07
5.19881e-06
2.30164e-07
5.20516e-06
2.3694e-07
2.30435e-07
5.21051e-06
5.41923e-06
-6.23467e-07
5.41535e-06
-4.99587e-07
5.45028e-06
3.08841e-07
5.4859e-06
1.36803e-07
5.44794e-06
-7.87774e-07
5.40833e-06
-9.40149e-07
5.40031e-06
-3.83953e-07
5.40757e-06
-8.09582e-08
5.41998e-06
-5.49635e-09
5.43222e-06
1.09279e-07
5.43395e-06
1.30916e-07
5.43701e-06
1.02461e-07
5.4391e-06
1.19084e-07
5.43604e-06
1.58822e-07
5.4356e-06
1.79467e-07
5.43913e-06
1.88481e-07
5.44283e-06
2.07315e-07
5.44723e-06
2.25771e-07
5.45343e-06
2.3074e-07
2.24721e-07
5.45914e-06
5.68005e-06
-5.87558e-07
5.67596e-06
-4.955e-07
5.71006e-06
2.7474e-07
5.7447e-06
1.02164e-07
5.70822e-06
-7.51289e-07
5.6691e-06
-9.01032e-07
5.66121e-06
-3.76059e-07
5.66764e-06
-8.73932e-08
5.67947e-06
-1.73255e-08
5.6921e-06
9.66532e-08
5.69398e-06
1.29028e-07
5.69625e-06
1.00191e-07
5.69918e-06
1.16156e-07
5.69695e-06
1.6105e-07
5.69581e-06
1.80606e-07
5.69919e-06
1.8511e-07
5.70363e-06
2.02873e-07
5.7078e-06
2.21599e-07
5.71357e-06
2.24968e-07
2.18701e-07
5.71959e-06
5.95342e-06
-5.51785e-07
5.94925e-06
-4.91333e-07
5.98204e-06
2.41948e-07
6.01592e-06
6.82858e-08
5.98084e-06
-7.16206e-07
5.94231e-06
-8.62497e-07
5.93473e-06
-3.68484e-07
5.94033e-06
-9.29883e-08
5.95133e-06
-2.83274e-08
5.96432e-06
8.36636e-08
5.96655e-06
1.26794e-07
5.96795e-06
9.8793e-08
5.97157e-06
1.12538e-07
5.97046e-06
1.62153e-07
5.96883e-06
1.82238e-07
5.97171e-06
1.82227e-07
5.9768e-06
1.97787e-07
5.98113e-06
2.17271e-07
5.98625e-06
2.19848e-07
2.12558e-07
5.99239e-06
6.23993e-06
-5.16225e-07
6.23583e-06
-4.87238e-07
6.26689e-06
2.1089e-07
6.30022e-06
3.49592e-08
6.26649e-06
-6.82477e-07
6.22843e-06
-8.24434e-07
6.22142e-06
-3.61474e-07
6.22625e-06
-9.78241e-08
6.23619e-06
-3.82607e-08
6.24943e-06
7.04155e-08
6.25223e-06
1.23994e-07
6.25276e-06
9.82683e-08
6.25681e-06
1.08487e-07
6.25715e-06
1.61812e-07
6.25526e-06
1.84124e-07
6.25738e-06
1.80115e-07
6.2629e-06
1.92264e-07
6.26774e-06
2.12432e-07
6.27221e-06
2.15379e-07
2.06611e-07
6.27816e-06
6.5402e-06
-4.80954e-07
6.53633e-06
-4.83375e-07
6.56547e-06
1.81759e-07
6.59815e-06
2.27573e-09
6.56593e-06
-6.50253e-07
6.52806e-06
-7.86566e-07
6.52176e-06
-3.55174e-07
6.52607e-06
-1.02141e-07
6.53472e-06
-4.69086e-08
6.54805e-06
5.70884e-08
6.5516e-06
1.20445e-07
6.55137e-06
9.8497e-08
6.55553e-06
1.04328e-07
6.55752e-06
1.59823e-07
6.55568e-06
1.85966e-07
6.55686e-06
1.78926e-07
6.56253e-06
1.86603e-07
6.56813e-06
2.0683e-07
6.57223e-06
2.11274e-07
2.01211e-07
6.57763e-06
6.8549e-06
-4.4606e-07
6.85137e-06
-4.79847e-07
6.87859e-06
1.54535e-07
6.91019e-06
-2.93258e-08
6.87989e-06
-6.19947e-07
6.84194e-06
-7.48616e-07
6.83625e-06
-3.49483e-07
6.84042e-06
-1.06312e-07
6.84767e-06
-5.41632e-08
6.86082e-06
4.39432e-08
6.86523e-06
1.16027e-07
6.86445e-06
9.92836e-08
6.86842e-06
1.00358e-07
6.87207e-06
1.5617e-07
6.87062e-06
1.87414e-07
6.87087e-06
1.78674e-07
6.87633e-06
1.81146e-07
6.88281e-06
2.00353e-07
6.88695e-06
2.07129e-07
1.96521e-07
6.89164e-06
7.18473e-06
-4.11652e-07
7.18158e-06
-4.76698e-07
7.20707e-06
1.29044e-07
7.23683e-06
-5.908e-08
7.20904e-06
-5.92156e-07
7.17092e-06
-7.10496e-07
7.16548e-06
-3.44043e-07
7.16987e-06
-1.10708e-07
7.17579e-06
-6.00778e-08
7.18844e-06
3.12868e-08
7.19374e-06
1.10734e-07
7.19265e-06
1.00372e-07
7.1962e-06
9.68105e-08
7.20133e-06
1.51038e-07
7.20072e-06
1.8802e-07
7.20013e-06
1.79268e-07
7.205e-06
1.76273e-07
7.21233e-06
1.93026e-07
7.21691e-06
2.02546e-07
1.92448e-07
7.22098e-06
7.53045e-06
-3.77873e-07
7.52763e-06
-4.73883e-07
7.55171e-06
1.04968e-07
7.57864e-06
-8.6014e-08
7.55398e-06
-5.67498e-07
7.51589e-06
-6.72409e-07
7.51015e-06
-3.38294e-07
7.51505e-06
-1.15608e-07
7.51982e-06
-6.48494e-08
7.53168e-06
1.94216e-08
7.53777e-06
1.04648e-07
7.53663e-06
1.0151e-07
7.53958e-06
9.38626e-08
7.54591e-06
1.44709e-07
7.54655e-06
1.87376e-07
7.54535e-06
1.80467e-07
7.54929e-06
1.72338e-07
7.55725e-06
1.85063e-07
7.56267e-06
1.97124e-07
1.88756e-07
7.56636e-06
7.89283e-06
-3.44896e-07
7.89022e-06
-4.71265e-07
7.91331e-06
8.18692e-08
7.9364e-06
-1.09104e-07
7.9153e-06
-5.46394e-07
7.8778e-06
-6.34907e-07
7.87108e-06
-3.31576e-07
7.87653e-06
-1.21061e-07
7.88049e-06
-6.88035e-08
7.8913e-06
8.61229e-09
7.89802e-06
9.79287e-08
7.89704e-06
1.02484e-07
7.89926e-06
9.16451e-08
7.90648e-06
1.37491e-07
7.90863e-06
1.85229e-07
7.90717e-06
1.81927e-07
7.91001e-06
1.69498e-07
7.91819e-06
1.76877e-07
7.92476e-06
1.90558e-07
1.85122e-07
7.92839e-06
8.27272e-06
-3.12934e-07
8.26994e-06
-4.68486e-07
8.29269e-06
5.91167e-08
8.31104e-06
-1.27447e-07
8.29354e-06
-5.28894e-07
8.25759e-06
-5.9896e-07
8.24921e-06
-3.23199e-07
8.25494e-06
-1.26792e-07
8.25849e-06
-7.23542e-08
8.26807e-06
-9.63031e-10
8.27517e-06
9.08283e-08
8.27452e-06
1.03135e-07
8.27589e-06
9.02734e-08
8.28369e-06
1.29688e-07
8.28745e-06
1.81466e-07
8.28627e-06
1.83108e-07
8.288e-06
1.67771e-07
8.29588e-06
1.68994e-07
8.30366e-06
1.82775e-07
1.81094e-07
8.30769e-06
8.67096e-06
-2.82233e-07
8.66744e-06
-4.64968e-07
8.6906e-06
3.59614e-08
8.70364e-06
-1.40485e-07
8.68913e-06
-5.14388e-07
8.65577e-06
-5.65602e-07
8.64541e-06
-3.12834e-07
8.65092e-06
-1.32301e-07
8.65439e-06
-7.58307e-08
8.6627e-06
-9.27172e-09
8.66987e-06
8.36659e-08
8.66958e-06
1.03416e-07
8.67019e-06
8.96713e-08
8.67816e-06
1.21715e-07
8.68363e-06
1.75999e-07
8.6833e-06
1.83432e-07
8.68412e-06
1.66957e-07
8.69119e-06
1.61922e-07
8.69998e-06
1.73989e-07
1.76195e-07
8.70488e-06
9.08845e-06
-2.5306e-07
9.08363e-06
-4.60154e-07
9.10773e-06
1.1861e-08
9.1156e-06
-1.48358e-07
9.10264e-06
-5.01421e-07
9.07298e-06
-5.35939e-07
9.06077e-06
-3.0063e-07
9.06522e-06
-1.36751e-07
9.06865e-06
-7.92648e-08
9.07576e-06
-1.63744e-08
9.08272e-06
7.6706e-08
9.08293e-06
1.03203e-07
9.08288e-06
8.97203e-08
9.09069e-06
1.13903e-07
9.09788e-06
1.68815e-07
9.09892e-06
1.82389e-07
9.09929e-06
1.66589e-07
9.10513e-06
1.56085e-07
9.11441e-06
1.647e-07
1.70043e-07
9.12057e-06
9.52609e-06
-2.25693e-07
9.51949e-06
-4.53554e-07
9.54484e-06
-1.34876e-08
9.54842e-06
-1.51932e-07
9.53499e-06
-4.87992e-07
9.50982e-06
-5.10769e-07
9.49622e-06
-2.87037e-07
9.49869e-06
-1.39222e-07
9.50182e-06
-8.23896e-08
9.50801e-06
-2.25635e-08
9.5147e-06
7.00174e-08
9.51566e-06
1.02236e-07
9.51506e-06
9.03278e-08
9.52232e-06
1.06639e-07
9.53106e-06
1.60073e-07
9.53386e-06
1.79593e-07
9.53444e-06
1.66007e-07
9.53886e-06
1.5166e-07
9.5479e-06
1.55666e-07
1.62513e-07
9.55543e-06
9.98485e-06
-2.00412e-07
9.97605e-06
-4.44755e-07
1.00027e-05
-4.01537e-08
1.00031e-05
-1.52309e-07
9.98731e-06
-4.72207e-07
9.96679e-06
-4.90245e-07
9.95267e-06
-2.72922e-07
9.95255e-06
-1.39101e-07
9.95504e-06
-8.48808e-08
9.9606e-06
-2.81147e-08
9.96726e-06
6.33558e-08
9.9692e-06
1.00294e-07
9.96808e-06
9.14469e-08
9.97438e-06
1.00343e-07
9.98425e-06
1.50198e-07
9.98902e-06
1.74822e-07
9.99031e-06
1.64717e-07
9.99365e-06
1.48326e-07
1.00017e-05
1.47627e-07
1.53941e-07
1.00103e-05
1.04657e-05
-1.77485e-07
1.04544e-05
-4.3343e-07
1.04822e-05
-6.7965e-08
1.04806e-05
-1.50697e-07
1.0461e-05
-4.52617e-07
1.04446e-05
-4.73853e-07
1.04313e-05
-2.59653e-07
1.04284e-05
-1.36168e-07
1.04297e-05
-8.61622e-08
1.04348e-05
-3.32325e-08
1.04417e-05
5.64546e-08
1.04446e-05
9.73983e-08
1.04433e-05
9.27321e-08
1.04483e-05
9.54035e-08
1.04587e-05
1.3972e-07
1.04654e-05
1.6815e-07
1.04677e-05
1.62425e-07
1.04705e-05
1.45472e-07
1.04772e-05
1.40984e-07
1.45075e-07
1.04861e-05
1.09697e-05
-1.57134e-07
1.09556e-05
-4.19383e-07
1.09842e-05
-9.65504e-08
1.09818e-05
-1.4834e-07
1.09581e-05
-4.28875e-07
1.09444e-05
-4.60197e-07
1.09335e-05
-2.487e-07
1.0928e-05
-1.30651e-07
1.09271e-05
-8.5306e-08
1.09319e-05
-3.8013e-08
1.09391e-05
4.92271e-08
1.09431e-05
9.34685e-08
1.0942e-05
9.37846e-08
1.09455e-05
9.19576e-08
1.09558e-05
1.29345e-07
1.09641e-05
1.59894e-07
1.09675e-05
1.58982e-07
1.09704e-05
1.42582e-07
1.09759e-05
1.35549e-07
1.36753e-07
1.09842e-05
1.14977e-05
-1.39508e-07
1.14809e-05
-4.0254e-07
1.15096e-05
-1.2523e-07
1.15079e-05
-1.4662e-07
1.14805e-05
-4.01544e-07
1.14672e-05
-4.46918e-07
1.14599e-05
-2.41335e-07
1.14529e-05
-1.23633e-07
1.14492e-05
-8.16844e-08
1.1453e-05
-4.17859e-08
1.14606e-05
4.16832e-08
1.14656e-05
8.83974e-08
1.14652e-05
9.4184e-08
1.14674e-05
8.9816e-08
1.14769e-05
1.19829e-07
1.14863e-05
1.50483e-07
1.14909e-05
1.54332e-07
1.14941e-05
1.39402e-07
1.14989e-05
1.30811e-07
1.29438e-07
1.15062e-05
1.2051e-05
-1.24658e-07
1.20314e-05
-3.83013e-07
1.20591e-05
-1.52891e-07
1.20596e-05
-1.47069e-07
1.20295e-05
-3.71507e-07
1.20142e-05
-4.31602e-07
1.20111e-05
-2.38276e-07
1.20042e-05
-1.16685e-07
1.19977e-05
-7.52102e-08
1.19995e-05
-4.35659e-08
1.20071e-05
3.40636e-08
1.20133e-05
8.21936e-08
1.20139e-05
9.36371e-08
1.20152e-05
8.85111e-08
1.20233e-05
1.11656e-07
1.20333e-05
1.40515e-07
1.20392e-05
1.4849e-07
1.20427e-05
1.35851e-07
1.20472e-05
1.26309e-07
1.23089e-07
1.20536e-05
1.26304e-05
-1.12499e-07
1.26087e-05
-3.61232e-07
1.26342e-05
-1.78408e-07
1.26378e-05
-1.50737e-07
1.26063e-05
-3.39969e-07
1.25874e-05
-4.12748e-07
1.25877e-05
-2.38496e-07
1.25827e-05
-1.11699e-07
1.25739e-05
-6.64418e-08
1.2573e-05
-4.26306e-08
1.258e-05
2.70069e-08
1.25872e-05
7.50091e-08
1.25889e-05
9.19041e-08
1.259e-05
8.75005e-08
1.25967e-05
1.04962e-07
1.26066e-05
1.30602e-07
1.26135e-05
1.41582e-07
1.26175e-05
1.3184e-07
1.26219e-05
1.21934e-07
1.17316e-07
1.26276e-05
1.32372e-05
-1.02812e-07
1.3214e-05
-3.37946e-07
1.32362e-05
-2.0063e-07
1.32436e-05
-1.58189e-07
1.32119e-05
-3.08257e-07
1.31889e-05
-3.89714e-07
1.319e-05
-2.39619e-07
1.31886e-05
-1.10284e-07
1.31789e-05
-5.67791e-08
1.31751e-05
-3.87877e-08
1.31807e-05
2.13502e-08
1.31885e-05
6.72344e-08
1.31916e-05
8.87962e-08
1.31927e-05
8.64361e-08
1.31981e-05
9.95104e-08
1.32075e-05
1.2126e-07
1.32151e-05
1.33923e-07
1.32198e-05
1.27174e-07
1.3224e-05
1.17699e-07
1.1187e-07
1.32295e-05
1.38726e-05
-9.52492e-08
1.3849e-05
-3.14346e-07
1.38667e-05
-2.18373e-07
1.38778e-05
-1.69267e-07
1.38472e-05
-2.77669e-07
1.38202e-05
-3.62701e-07
1.38196e-05
-2.39024e-07
1.38224e-05
-1.13008e-07
1.38136e-05
-4.8025e-08
1.38073e-05
-3.2522e-08
1.38108e-05
1.78415e-08
1.38187e-05
5.93969e-08
1.38231e-05
8.43761e-08
1.38246e-05
8.49435e-08
1.38291e-05
9.49836e-08
1.38376e-05
1.12772e-07
1.38456e-05
1.25952e-07
1.3851e-05
1.21783e-07
1.38552e-05
1.13475e-07
1.06753e-07
1.38603e-05
1.45378e-05
-8.93729e-08
1.45146e-05
-2.91166e-07
1.45273e-05
-2.31035e-07
1.45408e-05
-1.82791e-07
1.45129e-05
-2.49807e-07
1.44829e-05
-3.32704e-07
1.44786e-05
-2.34706e-07
1.44846e-05
-1.18967e-07
1.44786e-05
-4.20833e-08
1.44709e-05
-2.48057e-08
1.4472e-05
1.67371e-08
1.44792e-05
5.22342e-08
1.44846e-05
7.89722e-08
1.44869e-05
8.26015e-08
1.44908e-05
9.11299e-08
1.44984e-05
1.05118e-07
1.45063e-05
1.18102e-07
1.45122e-05
1.15841e-07
1.45167e-05
1.09007e-07
1.02001e-07
1.45215e-05
1.52342e-05
-8.46997e-08
1.52125e-05
-2.69457e-07
1.52195e-05
-2.38032e-07
1.52333e-05
-1.96588e-07
1.52095e-05
-2.26049e-07
1.51782e-05
-3.01335e-07
1.51692e-05
-2.25788e-07
1.51764e-05
-1.2615e-07
1.51746e-05
-4.02664e-08
1.5167e-05
-1.72264e-08
1.5166e-05
1.78146e-08
1.51717e-05
4.64832e-08
1.51776e-05
7.30698e-08
1.5181e-05
7.92321e-08
1.51845e-05
8.7612e-08
1.51914e-05
9.82542e-08
1.51989e-05
1.10559e-07
1.52051e-05
1.09688e-07
1.52099e-05
1.04128e-07
9.74572e-08
1.52145e-05
1.59633e-05
-8.06805e-08
1.5944e-05
-2.50189e-07
1.59443e-05
-2.38337e-07
1.59567e-05
-2.0891e-07
1.5938e-05
-2.07419e-07
1.59072e-05
-2.70497e-07
1.5894e-05
-2.12634e-07
1.58999e-05
-1.32036e-07
1.59024e-05
-4.27269e-08
1.58968e-05
-1.16241e-08
1.58939e-05
2.06725e-08
1.5898e-05
4.24506e-08
1.59038e-05
6.72059e-08
1.5908e-05
7.50176e-08
1.59117e-05
8.39682e-08
1.59178e-05
9.21594e-08
1.5925e-05
1.03307e-07
1.59311e-05
1.03576e-07
1.59363e-05
9.89585e-08
9.28549e-08
1.59409e-05
1.67267e-05
-7.6741e-08
1.67066e-05
-2.30085e-07
1.67015e-05
-2.33306e-07
1.6713e-05
-2.20333e-07
1.67003e-05
-1.94745e-07
1.66718e-05
-2.42066e-07
1.66555e-05
-1.9625e-07
1.6658e-05
-1.34559e-07
1.66633e-05
-4.80564e-08
1.6661e-05
-9.34507e-09
1.66574e-05
2.43184e-08
1.66597e-05
4.01603e-08
1.6665e-05
6.19103e-08
1.66697e-05
7.03037e-08
1.66737e-05
7.99396e-08
1.66793e-05
8.66015e-08
1.66862e-05
9.64161e-08
1.66923e-05
9.74899e-08
1.66974e-05
9.37666e-08
8.80631e-08
1.67022e-05
1.75263e-05
-7.26651e-08
1.75101e-05
-2.13852e-07
1.74993e-05
-2.22519e-07
1.75056e-05
-2.26718e-07
1.7498e-05
-1.87067e-07
1.74734e-05
-2.17544e-07
1.74552e-05
-1.78042e-07
1.74538e-05
-1.3307e-07
1.74594e-05
-5.3708e-08
1.74606e-05
-1.05446e-08
1.74578e-05
2.71462e-08
1.74584e-05
3.9515e-08
1.74627e-05
5.75839e-08
1.74677e-05
6.53304e-08
1.74721e-05
7.55912e-08
1.74774e-05
8.12741e-08
1.74838e-05
8.9974e-08
1.749e-05
9.13741e-08
1.7495e-05
8.87301e-08
8.31258e-08
1.74999e-05
1.83639e-05
-6.82432e-08
1.83495e-05
-1.99412e-07
1.83362e-05
-2.0928e-07
1.83379e-05
-2.2833e-07
1.83333e-05
-1.825e-07
1.83131e-05
-1.97315e-07
1.82945e-05
-1.59478e-07
1.82894e-05
-1.2793e-07
1.82933e-05
-5.76754e-08
1.8297e-05
-1.42596e-08
1.82962e-05
2.80045e-08
1.82958e-05
3.98587e-08
1.8299e-05
5.4416e-08
1.83039e-05
6.04733e-08
1.83085e-05
7.09714e-08
1.83137e-05
7.6045e-08
1.83198e-05
8.39151e-08
1.83259e-05
8.52934e-08
1.83308e-05
8.38149e-08
7.82157e-08
1.83357e-05
1.92416e-05
-6.34679e-08
1.92292e-05
-1.87029e-07
1.92147e-05
-1.94706e-07
1.92115e-05
-2.2519e-07
1.92081e-05