/*--------------------------------*- C++ -*----------------------------------*\
| =========                 |                                                 |
| \\      /  F ield         | OpenFOAM: The Open Source CFD Toolbox           |
|  \\    /   O peration     | Version:  2506                                  |
|   \\  /    A nd           | Website:  www.openfoam.com                      |
|    \\/     M anipulation  |                                                 |
\*---------------------------------------------------------------------------*/
FoamFile
{
    version     2.0;
    format      ascii;
    arch        "LSB;label=32;scalar=64";
    class       volScalarField;
    location    "3.35";
    object      p;
}
// * * * * * * * * * * * * * * * * * * * * * * * * * * * * * * * * * * * * * //

dimensions      [0 2 -2 0 0 0 0];

internalField   nonuniform List<scalar> 
9600
(
-8.94884e-11
-0.00228931
-0.00152638
-0.000528656
-0.00351584
-0.00314827
8.54392e-05
-0.00207913
-0.00372606
-0.00359576
-0.00325525
-0.00532473
-0.00572453
-0.00624086
-0.00894734
-0.0072892
-0.00904222
-0.00782899
-0.00790124
-0.00717889
6.79111e-07
-0.00228814
-0.00152697
-0.000547397
-0.00348578
-0.00313715
3.05359e-05
-0.00207714
-0.0037272
-0.00361209
-0.00323842
-0.00533902
-0.00569499
-0.00625628
-0.00880212
-0.00733862
-0.00899166
-0.0078379
-0.00788423
-0.0072624
1.27929e-06
-0.00228686
-0.00153196
-0.000570216
-0.00345182
-0.00312694
-1.9429e-05
-0.00207119
-0.00373638
-0.00363001
-0.00322855
-0.00536032
-0.00566672
-0.00627746
-0.00871962
-0.00738054
-0.0089137
-0.00786756
-0.00787192
-0.00737431
8.0463e-07
-0.0022861
-0.00153785
-0.000597193
-0.00342004
-0.00311606
-6.77534e-05
-0.00206929
-0.00374983
-0.00364934
-0.00322815
-0.00539021
-0.00564144
-0.00630239
-0.00863112
-0.00741972
-0.00883786
-0.00790887
-0.00787078
-0.00749572
-8.837e-07
-0.00228582
-0.00154305
-0.000628762
-0.00338814
-0.00310482
-0.000117353
-0.00207284
-0.00376545
-0.00367012
-0.00323169
-0.00542766
-0.00561625
-0.00632787
-0.00853765
-0.00746164
-0.00876918
-0.00794807
-0.00788465
-0.0076176
-3.61188e-06
-0.00228616
-0.00154732
-0.0006639
-0.003354
-0.00309477
-0.000169199
-0.00208003
-0.00378106
-0.00369108
-0.00323682
-0.00546892
-0.00559101
-0.0063523
-0.00844187
-0.0075078
-0.00870475
-0.00798075
-0.00791845
-0.00772905
-7.18192e-06
-0.00228722
-0.00155056
-0.000701453
-0.00331839
-0.00308673
-0.000222804
-0.0020891
-0.00379496
-0.00371134
-0.00324186
-0.00551088
-0.00556663
-0.00637499
-0.00834701
-0.00754901
-0.00864424
-0.00801015
-0.00796754
-0.00782579
-1.13728e-05
-0.00228893
-0.00155302
-0.000740859
-0.00328182
-0.00308031
-0.000277551
-0.002099
-0.00380667
-0.00373041
-0.00324582
-0.00555199
-0.00554337
-0.00639533
-0.0082544
-0.00758313
-0.0085925
-0.00803527
-0.00802475
-0.00791635
-1.59693e-05
-0.00229117
-0.00155523
-0.000781958
-0.0032445
-0.00307487
-0.000333336
-0.00210912
-0.00381638
-0.00374817
-0.00324857
-0.00559179
-0.00552113
-0.00641244
-0.00816408
-0.00760952
-0.00855219
-0.00805202
-0.0080894
-0.0080111
-2.08197e-05
-0.00229385
-0.00155777
-0.000824712
-0.00320643
-0.00306968
-0.000390363
-0.00211914
-0.00382464
-0.00376495
-0.00325047
-0.00563027
-0.00549945
-0.00642512
-0.00807737
-0.00762755
-0.00852317
-0.00805978
-0.00816329
-0.00811443
-2.58486e-05
-0.00229693
-0.00156095
-0.000869085
-0.00316759
-0.00306445
-0.00044892
-0.00212893
-0.00383217
-0.00378128
-0.00325192
-0.00566763
-0.00548086
-0.00643205
-0.00799682
-0.0076359
-0.00850519
-0.00806125
-0.00824409
-0.0082278
-3.10362e-05
-0.0023004
-0.00156491
-0.000914988
-0.00312794
-0.0030592
-0.000509259
-0.00213859
-0.00383966
-0.00379748
-0.00325328
-0.00570387
-0.00546527
-0.00643216
-0.00792404
-0.00763332
-0.00849878
-0.00805954
-0.00832631
-0.00835356
-3.63937e-05
-0.00230423
-0.0015696
-0.000962257
-0.00308751
-0.00305387
-0.000571569
-0.00214816
-0.00384757
-0.0038137
-0.0032549
-0.00573878
-0.00545343
-0.00642449
-0.00786013
-0.00761962
-0.00850377
-0.00805848
-0.008404
-0.00849307
-4.19487e-05
-0.00230843
-0.00157491
-0.00101069
-0.00304645
-0.00304839
-0.000635989
-0.0021576
-0.00385627
-0.00383001
-0.00325713
-0.00577199
-0.00544622
-0.00640808
-0.00780596
-0.00759581
-0.00851839
-0.00806304
-0.00847155
-0.00864499
-4.77384e-05
-0.00231297
-0.00158076
-0.00106007
-0.00300496
-0.00304268
-0.000702636
-0.00216683
-0.00386609
-0.00384634
-0.00326033
-0.00580299
-0.00544454
-0.0063823
-0.00776228
-0.00756398
-0.00853886
-0.00807818
-0.00852473
-0.00880586
-5.38083e-05
-0.00231782
-0.00158707
-0.00111019
-0.0029633
-0.00303658
-0.000771648
-0.00217578
-0.00387729
-0.00386259
-0.00326483
-0.00583128
-0.00544924
-0.00634673
-0.00772905
-0.00752722
-0.00856008
-0.00810813
-0.00856178
-0.00897005
-6.02133e-05
-0.00232291
-0.00159386
-0.00116085
-0.00292171
-0.00302996
-0.000843184
-0.00218433
-0.00389008
-0.00387865
-0.00327092
-0.00585637
-0.00546123
-0.00630124
-0.00770506
-0.0074894
-0.00857716
-0.00815595
-0.00858355
-0.00912999
-6.70179e-05
-0.00232816
-0.00160117
-0.00121188
-0.00288051
-0.00302265
-0.000917421
-0.00219234
-0.00390466
-0.00389451
-0.00327884
-0.00587793
-0.00548114
-0.00624645
-0.00768808
-0.00745442
-0.00858622
-0.00822291
-0.00859287
-0.0092777
-7.42965e-05
-0.00233349
-0.00160911
-0.00126307
-0.00284002
-0.00301443
-0.000994574
-0.00219967
-0.00392115
-0.00391024
-0.00328863
-0.00589587
-0.00550926
-0.00618318
-0.00767548
-0.00742643
-0.00858476
-0.00830763
-0.00859432
-0.00940578
-8.21382e-05
-0.00233876
-0.00161781
-0.0013142
-0.00280061
-0.00300504
-0.00107485
-0.00220626
-0.00393961
-0.00392613
-0.00329994
-0.00591
-0.00554567
-0.00611247
-0.00766424
-0.00740955
-0.00857193
-0.00840654
-0.00859319
-0.00950764
-9.06507e-05
-0.00234383
-0.00162746
-0.00136505
-0.0027627
-0.00299409
-0.00115843
-0.00221201
-0.00396001
-0.00394261
-0.00331238
-0.00592034
-0.00559006
-0.00603635
-0.00765148
-0.00740637
-0.00854759
-0.00851521
-0.0085954
-0.00957826
-9.99622e-05
-0.00234851
-0.00163825
-0.00141533
-0.00272671
-0.0029816
-0.00124539
-0.00221704
-0.00398217
-0.00395998
-0.00332555
-0.00592755
-0.00564182
-0.00595693
-0.00763526
-0.00741795
-0.00851196
-0.00862919
-0.00860736
-0.00961457
-0.000110224
-0.00235259
-0.00165042
-0.00146476
-0.00269306
-0.00296732
-0.00133582
-0.00222151
-0.00400571
-0.00397897
-0.00333884
-0.00593221
-0.00570076
-0.0058757
-0.00761374
-0.00744484
-0.00846623
-0.00874366
-0.00863469
-0.00961589
-0.000121608
-0.00235582
-0.00166421
-0.00151304
-0.00266221
-0.00295103
-0.00142974
-0.00222554
-0.00402997
-0.00400103
-0.00335051
-0.00593409
-0.00576717
-0.00579445
-0.00758489
-0.00748709
-0.0084125
-0.00885293
-0.00868183
-0.00958492
-0.000134321
-0.00235793
-0.00167989
-0.00155985
-0.0026346
-0.00293264
-0.00152699
-0.00222964
-0.00405417
-0.00402737
-0.00335956
-0.00593245
-0.00584095
-0.0057152
-0.00754718
-0.00754494
-0.00835327
-0.00894988
-0.00875232
-0.00952856
-0.000148602
-0.00235855
-0.00169773
-0.00160491
-0.00261067
-0.00291216
-0.00162728
-0.00223466
-0.00407696
-0.00405914
-0.00336623
-0.00592627
-0.00592183
-0.00563982
-0.00749929
-0.00761895
-0.00829223
-0.00902573
-0.00884749
-0.00945863
-0.000164715
-0.00235734
-0.00171803
-0.001648
-0.0025908
-0.00288963
-0.00173018
-0.00224141
-0.00409672
-0.00409771
-0.0033709
-0.00591424
-0.00600992
-0.0055707
-0.00743924
-0.00770851
-0.00823496
-0.00907134
-0.00896458
-0.00939158
-0.000182959
-0.00235387
-0.00174104
-0.00168892
-0.00257528
-0.00286529
-0.00183483
-0.00225103
-0.0041121
-0.00414355
-0.003375
-0.00589475
-0.00610547
-0.0055103
-0.00736449
-0.00781064
-0.00818839
-0.00907983
-0.00909477
-0.00934564
-0.000203668
-0.00234774
-0.00176698
-0.00172752
-0.00256447
-0.00283956
-0.0019399
-0.00226517
-0.00412184
-0.00419661
-0.00338033
-0.00586572
-0.00620801
-0.00546296
-0.00727305
-0.0079209
-0.00816061
-0.00904819
-0.00922294
-0.00933711
-0.000227161
-0.00233857
-0.00179603
-0.00176374
-0.00255871
-0.00281321
-0.00204387
-0.00228531
-0.00412516
-0.00425666
-0.0033888
-0.00582516
-0.00631599
-0.00543221
-0.00716474
-0.00803411
-0.00815938
-0.00897964
-0.00933069
-0.0093749
-0.000253802
-0.00232595
-0.00182827
-0.00179772
-0.00255866
-0.00278719
-0.00214487
-0.0023127
-0.00412215
-0.00432202
-0.0034027
-0.00577217
-0.00642704
-0.00542189
-0.00704197
-0.00814316
-0.00818984
-0.00888439
-0.00939961
-0.00945433
-0.00028397
-0.00230947
-0.00186366
-0.00182979
-0.00256364
-0.00276277
-0.00224103
-0.00234832
-0.00411336
-0.00439064
-0.00342466
-0.00570663
-0.00653775
-0.00543603
-0.00690311
-0.00823883
-0.00825356
-0.00877689
-0.00941585
-0.00955584
-0.000317971
-0.00228879
-0.00190208
-0.0018604
-0.00256771
-0.00274152
-0.00233104
-0.00239232
-0.00409974
-0.00446056
-0.00345744
-0.00562926
-0.00664378
-0.00547788
-0.00675397
-0.00831149
-0.00834804
-0.00867339
-0.00937495
-0.00965238
-0.000356093
-0.00226375
-0.00194302
-0.00189026
-0.00257303
-0.00272488
-0.00241405
-0.00244412
-0.00408286
-0.00452965
-0.00350306
-0.00554198
-0.00674048
-0.00554901
-0.00660133
-0.00835278
-0.00846694
-0.00858806
-0.0092832
-0.00971813
-0.000398566
-0.00223442
-0.00198569
-0.00192028
-0.00257893
-0.00271391
-0.00249
-0.00250267
-0.00406428
-0.00459631
-0.00356275
-0.00544766
-0.0068237
-0.00564866
-0.00645239
-0.00835639
-0.00860203
-0.00853122
-0.00915376
-0.00973413
-0.000445542
-0.00220109
-0.00202894
-0.00195132
-0.0025847
-0.00270906
-0.00255949
-0.00256688
-0.00404567
-0.00465907
-0.00363699
-0.00535008
-0.00688966
-0.00577464
-0.00631472
-0.00831711
-0.00874302
-0.0085103
-0.00900205
-0.00969243
-0.000497253
-0.00216412
-0.00207116
-0.00198405
-0.00258986
-0.00271027
-0.00262312
-0.00263554
-0.0040292
-0.00471683
-0.00372555
-0.00525333
-0.00693453
-0.00592366
-0.00619705
-0.00823135
-0.00887722
-0.00853005
-0.00884331
-0.00959413
-0.000553796
-0.00212503
-0.00211074
-0.00201827
-0.00259446
-0.00271755
-0.00268153
-0.00270736
-0.00401669
-0.0047695
-0.00382794
-0.00515855
-0.0069548
-0.00608966
-0.00610796
-0.00810035
-0.00899005
-0.00859201
-0.0086936
-0.00944562
-0.000614997
-0.00208507
-0.00214642
-0.00205342
-0.00259864
-0.00273097
-0.00273602
-0.00278108
-0.0040091
-0.00481736
-0.00394181
-0.00507552
-0.00694842
-0.00626432
-0.00605522
-0.00793218
-0.00906583
-0.00869162
-0.00857043
-0.00925731
-0.000680654
-0.00204536
-0.00217709
-0.00208922
-0.0026024
-0.00275047
-0.00278973
-0.00285543
-0.00400603
-0.00486069
-0.00406306
-0.00500316
-0.00691497
-0.00643971
-0.00604451
-0.00774062
-0.00909107
-0.00881661
-0.00849032
-0.00904436
-0.000750345
-0.00200696
-0.00220244
-0.00212536
-0.00260536
-0.00277597
-0.00284602
-0.00292906
-0.00400557
-0.00490134
-0.00418974
-0.00494332
-0.00685457
-0.00660769
-0.00607745
-0.00754186
-0.00905825
-0.00894854
-0.00846406
-0.00882735
-0.00082319
-0.00197103
-0.00222276
-0.00216171
-0.00260617
-0.0028067
-0.00290902
-0.00300236
-0.00400664
-0.00493513
-0.00431929
-0.00489793
-0.00677072
-0.00676014
-0.00615157
-0.00735278
-0.00896716
-0.00906666
-0.0084919
-0.00863017
-0.000898262
-0.00193832
-0.00223845
-0.00219856
-0.0025989
-0.00283907
-0.00297949
-0.00307932
-0.00401117
-0.00496165
-0.00444842
-0.00486793
-0.00666334
-0.0068882
-0.00626034
-0.00718811
-0.00882499
-0.00915184
-0.00856319
-0.00847448
-0.000975154
-0.00190886
-0.00224943
-0.00223867
-0.0025891
-0.00287064
-0.0030569
-0.00316407
-0.00401862
-0.00497918
-0.00457481
-0.00485523
-0.00654005
-0.00698223
-0.00639301
-0.00705911
-0.00864486
-0.00918999
-0.00865988
-0.00837341
-0.0010531
-0.00188301
-0.00225574
-0.00227755
-0.00258654
-0.00290365
-0.00314308
-0.00325222
-0.00402374
-0.00498565
-0.00469792
-0.00486439
-0.00640971
-0.00703734
-0.00653672
-0.0069733
-0.0084439
-0.00917399
-0.00876124
-0.00832865
-0.00113088
-0.00186124
-0.00225927
-0.00232298
-0.00259019
-0.00293202
-0.00322611
-0.00334135
-0.00402973
-0.00498256
-0.00481586
-0.00489646
-0.00628178
-0.00705333
-0.00667849
-0.00693161
-0.00823997
-0.00910438
-0.00884827
-0.00833234
-0.00120801
-0.00184443
-0.0022605
-0.00237245
-0.00260036
-0.0029537
-0.00330133
-0.00343396
-0.00404311
-0.00497137
-0.0049247
-0.00494796
-0.0061638
-0.00703388
-0.0068062
-0.00692745
-0.00804801
-0.00898779
-0.00890478
-0.00836966
-0.00128389
-0.00183341
-0.00225886
-0.00242497
-0.00262029
-0.00296964
-0.00336816
-0.00353092
-0.00406562
-0.00495268
-0.00501847
-0.00501452
-0.00606252
-0.00698596
-0.00691025
-0.00695042
-0.00787858
-0.00883607
-0.00891941
-0.00842204
-0.00135753
-0.00182873
-0.00225476
-0.00247819
-0.0026536
-0.00298503
-0.00342414
-0.00362665
-0.00409765
-0.00493017
-0.00509447
-0.00508939
-0.0059809
-0.00691726
-0.00698585
-0.00699051
-0.00773841
-0.00866414
-0.00888812
-0.00847014
-0.00142817
-0.00183078
-0.00224905
-0.00252997
-0.00270144
-0.00300433
-0.00346705
-0.00371551
-0.0041389
-0.00490909
-0.0051534
-0.00516505
-0.0059176
-0.00683676
-0.00703339
-0.00703856
-0.0076289
-0.00848573
-0.00881348
-0.00849682
-0.00149519
-0.00183958
-0.00224357
-0.00257884
-0.00276339
-0.00303079
-0.0034973
-0.00379366
-0.00418758
-0.00489325
-0.00519698
-0.00523646
-0.00587027
-0.00675034
-0.00705461
-0.00708601
-0.00754748
-0.0083126
-0.00870436
-0.00849154
-0.00155832
-0.0018552
-0.00224088
-0.00262303
-0.00283546
-0.00306787
-0.00351833
-0.00385823
-0.00424005
-0.00488456
-0.00522762
-0.00530123
-0.00583716
-0.0066618
-0.00705106
-0.00712621
-0.00748915
-0.00815309
-0.00857206
-0.00845156
-0.00161763
-0.00187749
-0.00224384
-0.00266008
-0.00291072
-0.0031178
-0.0035364
-0.00390875
-0.00429118
-0.00488298
-0.00525022
-0.00535841
-0.00581524
-0.00657412
-0.00702466
-0.0071542
-0.00744779
-0.00801142
-0.00842737
-0.00837953
-0.00167377
-0.00190643
-0.00225381
-0.00268938
-0.00298295
-0.00318005
-0.00355906
-0.00394701
-0.00433616
-0.00488702
-0.00526869
-0.00540743
-0.00580024
-0.00648952
-0.00697906
-0.0071664
-0.00741735
-0.00788865
-0.00827978
-0.0082814
-0.00172758
-0.00194104
-0.00227139
-0.00271203
-0.00304826
-0.00325298
-0.00359125
-0.00397601
-0.004372
-0.00489264
-0.00528312
-0.00544995
-0.00579114
-0.00641008
-0.00691822
-0.00715981
-0.00739094
-0.00778335
-0.0081368
-0.00816578
-0.00177978
-0.00198001
-0.00229668
-0.00273158
-0.00310459
-0.00333192
-0.00363502
-0.00400068
-0.00439816
-0.00489597
-0.00529254
-0.00548657
-0.00578811
-0.00633707
-0.00684571
-0.00713342
-0.00736199
-0.00769231
-0.0080027
-0.00804151
-0.00183096
-0.00202157
-0.00232942
-0.00275249
-0.00315195
-0.00341003
-0.00368941
-0.00402706
-0.00441555
-0.00489465
-0.00529627
-0.00551504
-0.0057893
-0.00627262
-0.00676655
-0.00708953
-0.00732573
-0.00761007
-0.00787735
-0.0079148
-0.00188176
-0.0020648
-0.00236894
-0.00277789
-0.00319125
-0.00348217
-0.00375218
-0.00405958
-0.00442709
-0.00488653
-0.00529275
-0.0055349
-0.00579183
-0.00621777
-0.00668561
-0.00703088
-0.00727947
-0.00753152
-0.00775915
-0.00778898
-0.00193295
-0.00210945
-0.00241341
-0.00280936
-0.00322519
-0.00354577
-0.00381859
-0.00409931
-0.00443815
-0.00487226
-0.0052793
-0.00554555
-0.0057935
-0.00617057
-0.00660599
-0.00696044
-0.00722214
-0.00745366
-0.0076467
-0.00766494
-0.00198514
-0.00215536
-0.002461
-0.00284719
-0.00325795
-0.00360048
-0.00388312
-0.00414474
-0.00445282
-0.00485496
-0.0052553
-0.00554347
-0.00579208
-0.00612954
-0.00652993
-0.00688245
-0.00715371
-0.00737382
-0.00753841
-0.00754246
-0.00203884
-0.00220287
-0.00251016
-0.00289072
-0.00329296
-0.00364741
-0.00394181
-0.00419361
-0.00447203
-0.00483835
-0.00522412
-0.00552626
-0.0057828
-0.00609253
-0.00645844
-0.00680108
-0.00707609
-0.00728976
-0.00743274
-0.00742163
-0.00209435
-0.00225238
-0.00256021
-0.00293883
-0.00333195
-0.00368892
-0.00399275
-0.00424205
-0.00449536
-0.00482428
-0.00518877
-0.00549696
-0.00576115
-0.00605422
-0.00639072
-0.00671861
-0.00699258
-0.007201
-0.007328
-0.00730234
-0.0021518
-0.0023044
-0.00261121
-0.00298977
-0.00337518
-0.00372828
-0.00403637
-0.0042859
-0.00452136
-0.00481407
-0.00515095
-0.00545888
-0.00572769
-0.0060096
-0.00632368
-0.00663513
-0.00690483
-0.00710828
-0.00722285
-0.00718446
-0.00221124
-0.00235926
-0.00266369
-0.00304222
-0.00342203
-0.00376808
-0.00407434
-0.00432301
-0.00454686
-0.00480846
-0.0051128
-0.00541215
-0.00568409
-0.00595741
-0.00625399
-0.00654977
-0.0068121
-0.00701108
-0.00711568
-0.00706679
-0.00227281
-0.00241716
-0.00271817
-0.00309549
-0.00347161
-0.00380969
-0.00410889
-0.00435371
-0.00456812
-0.00480479
-0.00507739
-0.00535863
-0.00562902
-0.0058972
-0.0061796
-0.00646136
-0.0067144
-0.00690847
-0.0070053
-0.00694695
-0.00233672
-0.00247826
-0.00277539
-0.00314971
-0.00352268
-0.00385317
-0.00414236
-0.00437996
-0.00458406
-0.00479916
-0.00504396
-0.00530287
-0.00556289
-0.00582578
-0.00609746
-0.0063671
-0.00661151
-0.00680028
-0.00689177
-0.00682562
-0.00240328
-0.00254257
-0.00283572
-0.00320561
-0.00357501
-0.00389822
-0.00417566
-0.004403
-0.00459625
-0.00479077
-0.00500856
-0.00524521
-0.00548911
-0.00574162
-0.00600388
-0.0062631
-0.00650059
-0.00668501
-0.00677328
-0.00670268
-0.00247289
-0.00260994
-0.00289921
-0.00326389
-0.00362894
-0.00394513
-0.00420985
-0.00442375
-0.00460486
-0.00478099
-0.00497107
-0.0051821
-0.00540776
-0.00564519
-0.00589565
-0.0061454
-0.00637737
-0.00656021
-0.00664814
-0.00657731
-0.00254594
-0.00268066
-0.00296593
-0.00332533
-0.00368494
-0.00399362
-0.0042462
-0.00444487
-0.00461003
-0.00476807
-0.00493325
-0.00511497
-0.00531734
-0.00553547
-0.00576829
-0.00600717
-0.0062343
-0.00641873
-0.00651141
-0.00644621
-0.00262279
-0.00275513
-0.00303606
-0.00339018
-0.00374398
-0.00404442
-0.00428489
-0.00446823
-0.00461514
-0.00475163
-0.0048922
-0.00504564
-0.00521997
-0.00541288
-0.00562045
-0.00584029
-0.00605861
-0.00624412
-0.00634681
-0.00629582
-0.00270383
-0.00283297
-0.0031103
-0.00345889
-0.0038062
-0.00409906
-0.00432779
-0.00449482
-0.00462267
-0.00473576
-0.00484666
-0.00496923
-0.00511348
-0.00527564
-0.00545298
-0.0056445
-0.00584282
-0.00601979
-0.00612822
-0.00609668
-0.00279015
-0.00291602
-0.00318837
-0.00353154
-0.00387202
-0.00415791
-0.00437725
-0.00452924
-0.00463598
-0.00472327
-0.00480036
-0.0048839
-0.00499099
-0.00511344
-0.00525541
-0.00541543
-0.00558498
-0.00574181
-0.00584301
-0.00582184
-0.00288172
-0.00300459
-0.00327121
-0.00360882
-0.00394196
-0.0042217
-0.00443417
-0.00457648
-0.00466622
-0.00472381
-0.00476007
-0.00479249
-0.00484138
-0.00491131
-0.00501214
-0.00514358
-0.0052918
-0.00542781
-0.00550768
-0.00546582
-0.00297591
-0.00309595
-0.00336171
-0.00369236
-0.00401686
-0.0042882
-0.00449725
-0.00463965
-0.00472623
-0.00477138
-0.00476396
-0.00470648
-0.00463315
-0.0045654
-0.00454024
-0.00459454
-0.00474632
-0.00497683
-0.0052176
-0.00537132
-0.00307702
-0.00319677
-0.00345957
-0.00378036
-0.00409365
-0.0043527
-0.00455621
-0.00470782
-0.00481277
-0.00489544
-0.00494952
-0.00493294
-0.00477868
-0.00449349
-0.00419204
-0.00395001
-0.00374227
-0.00352353
-0.00329742
-0.00313123
-0.00319045
-0.00330976
-0.00356364
-0.00387433
-0.00417221
-0.00441558
-0.00460895
-0.00475829
-0.00485599
-0.00485052
-0.00468833
-0.00443837
-0.00419092
-0.00398842
-0.0038433
-0.00374024
-0.00367211
-0.00362785
-0.00361117
-0.00365946
-0.00331788
-0.00341847
-0.00366812
-0.00397482
-0.00427464
-0.0045268
-0.0046883
-0.00470803
-0.00462288
-0.00451193
-0.00440331
-0.00431383
-0.00424589
-0.00415571
-0.00403331
-0.00384844
-0.00358954
-0.0032819
-0.00297874
-0.00277511
-0.00348655
-0.00356614
-0.00373808
-0.0039514
-0.00416767
-0.00434155
-0.00445619
-0.00450922
-0.00449726
-0.0044492
-0.00437255
-0.00425935
-0.00415246
-0.00405734
-0.00400869
-0.00406295
-0.00423586
-0.00451539
-0.00483806
-0.00511547
-0.00367747
-0.00376591
-0.00385064
-0.0039602
-0.00411324
-0.00427585
-0.00441537
-0.00451816
-0.00454889
-0.00451001
-0.00444052
-0.00431639
-0.00416623
-0.00401755
-0.00383409
-0.00360258
-0.00332597
-0.00304308
-0.00281261
-0.00271591
-0.00379828
-0.00387827
-0.00393725
-0.00400323
-0.00411268
-0.00425218
-0.00438032
-0.0044678
-0.00448475
-0.00442154
-0.00433421
-0.00422368
-0.00408412
-0.00395791
-0.00383746
-0.00372713
-0.00362763
-0.00354768
-0.00352228
-0.00360192
-0.00665436
-0.00942375
-0.0147596
-0.0185325
-0.01854
-0.0165887
-0.0143835
-0.0124763
-0.0109986
-0.0099395
-0.00924048
-0.00884865
-0.0086227
-0.00826928
-0.00764444
-0.00697261
-0.00648797
-0.00616697
-0.00590007
-0.00558236
-0.00514108
-0.00463974
-0.00418936
-0.00378954
-0.00336324
-0.00288824
-0.00242532
-0.00202922
-0.00167503
-0.00129535
-0.000873693
-0.000462922
-0.000108165
0.000220633
0.000584711
0.000987494
0.00138887
0.0017804
0.00219878
0.00265241
0.00310377
0.00354249
0.00399912
0.00447636
0.00493378
0.00537295
0.0058371
0.00632408
0.00680658
0.00729789
0.0078281
0.00837439
0.00890198
0.00944121
0.00999268
0.0105274
0.0110785
0.0116661
0.0122624
0.0128787
0.0135188
0.0141547
0.0147834
0.015427
0.0160847
0.0167602
0.0174591
0.0181781
0.0189025
0.0196365
0.02038
0.0211364
0.0219072
0.022698
0.0235058
0.0243302
0.0251663
0.026017
0.0268847
0.0277681
0.0286675
0.0295819
0.0305178
0.031471
0.0324426
0.0334293
0.034436
0.0354619
0.0365079
0.0375739
0.0386587
0.0397642
0.0408896
0.0420408
0.0432051
0.044397
0.0456142
0.0468404
0.0480071
0.0492115
-0.00686666
-0.00949109
-0.0146465
-0.0183989
-0.0184742
-0.0165593
-0.014365
-0.0124619
-0.0109865
-0.00992879
-0.00923065
-0.00884007
-0.00861606
-0.00826443
-0.00764044
-0.00696876
-0.00648431
-0.00616364
-0.00589714
-0.00557988
-0.00513883
-0.00463746
-0.00418711
-0.00378749
-0.0033614
-0.0028865
-0.00242361
-0.00202759
-0.00167356
-0.00129403
-0.00087244
-0.000461678
-0.000106973
0.000221707
0.000585683
0.000988426
0.00138978
0.00178124
0.00219954
0.00265313
0.00310448
0.00354314
0.00399973
0.00447695
0.00493437
0.00537349
0.0058376
0.00632456
0.00680705
0.00729832
0.0078285
0.0083748
0.00890238
0.00944158
0.00999305
0.0105277
0.0110788
0.0116664
0.0122627
0.012879
0.013519
0.014155
0.0147837
0.0154272
0.016085
0.0167605
0.0174593
0.0181783
0.0189027
0.0196367
0.0203802
0.0211366
0.0219073
0.0226982
0.023506
0.0243303
0.0251665
0.0260172
0.0268849
0.0277683
0.0286677
0.029582
0.0305179
0.0314711
0.0324427
0.0334294
0.0344361
0.035462
0.036508
0.037574
0.0386588
0.0397643
0.0408897
0.0420409
0.0432052
0.0443971
0.0456143
0.0468405
0.0480072
0.0492116
-0.00719896
-0.00961969
-0.0144467
-0.0181419
-0.01835
-0.0165131
-0.0143419
-0.0124463
-0.0109745
-0.00991924
-0.00922238
-0.00883188
-0.00860805
-0.00825747
-0.00763483
-0.00696434
-0.0064808
-0.0061606
-0.00589439
-0.00557752
-0.00513676
-0.00463548
-0.00418518
-0.00378567
-0.00335969
-0.00288484
-0.00242201
-0.00202611
-0.00167225
-0.00129284
-0.000871281
-0.000460532
-0.000105907
0.000222642
0.000586534
0.000989254
0.00139058
0.00178197
0.00220021
0.00265378
0.00310511
0.00354372
0.00400026
0.00447749
0.00493489
0.00537396
0.00583803
0.00632499
0.00680745
0.00729868
0.00782885
0.00837516
0.00890272
0.0094419
0.00999337
0.010528
0.0110791
0.0116667
0.0122629
0.0128793
0.0135193
0.0141552
0.0147839
0.0154274
0.0160852
0.0167607
0.0174595
0.0181785
0.0189029
0.0196369
0.0203804
0.0211367
0.0219075
0.0226983
0.0235061
0.0243305
0.0251666
0.0260173
0.026885
0.0277684
0.0286678
0.0295821
0.030518
0.0314712
0.0324428
0.0334295
0.0344362
0.0354621
0.0365081
0.037574
0.0386589
0.0397644
0.0408897
0.042041
0.0432053
0.0443971
0.0456144
0.0468406
0.0480073
0.0492118
-0.00753265
-0.00973731
-0.014176
-0.0177884
-0.0181612
-0.0164395
-0.0143063
-0.012424
-0.010959
-0.0099086
-0.00921484
-0.00882402
-0.00859774
-0.00824616
-0.00762538
-0.00695792
-0.00647644
-0.0061567
-0.00589041
-0.00557399
-0.00513413
-0.00463354
-0.00418337
-0.00378369
-0.00335765
-0.00288298
-0.00242034
-0.00202453
-0.00167073
-0.00129141
-0.000869948
-0.000459279
-0.000104747
0.000223678
0.000587472
0.00099014
0.00139143
0.00178277
0.00220095
0.00265449
0.00310579
0.00354434
0.00400085
0.00447807
0.00493544
0.00537445
0.00583848
0.00632544
0.00680787
0.00729905
0.00782922
0.00837555
0.00890308
0.00944223
0.00999371
0.0105283
0.0110794
0.011667
0.0122632
0.0128795
0.0135195
0.0141555
0.0147842
0.0154277
0.0160854
0.0167609
0.0174597
0.0181787
0.0189031
0.019637
0.0203805
0.0211369
0.0219077
0.0226985
0.0235063
0.0243306
0.0251667
0.0260174
0.0268851
0.0277685
0.0286679
0.0295822
0.0305181
0.0314713
0.0324429
0.0334296
0.0344363
0.0354622
0.0365081
0.0375741
0.038659
0.0397644
0.0408898
0.0420411
0.0432054
0.0443972
0.0456145
0.0468407
0.0480074
0.0492121
-0.00784055
-0.00983152
-0.0138794
-0.017399
-0.0179416
-0.0163512
-0.0142635
-0.0123967
-0.0109396
-0.00989591
-0.00920746
-0.00881635
-0.00858463
-0.00822949
-0.00761133
-0.00694939
-0.00647128
-0.00615148
-0.00588392
-0.00556769
-0.00512986
-0.00463129
-0.00418161
-0.00378131
-0.00335496
-0.00288076
-0.00241868
-0.0020229
-0.00166883
-0.00128947
-0.000868246
-0.000457786
-0.000103323
0.000225029
0.000588662
0.000991174
0.0013924
0.00178374
0.00220187
0.00265535
0.00310659
0.00354511
0.00400158
0.00447876
0.00493608
0.00537502
0.00583902
0.00632595
0.00680834
0.00729948
0.00782964
0.00837598
0.00890349
0.00944261
0.0099941
0.0105287
0.0110797
0.0116673
0.0122635
0.0128798
0.0135198
0.0141558
0.0147844
0.0154279
0.0160856
0.0167611
0.0174599
0.0181789
0.0189033
0.0196372
0.0203807
0.0211371
0.0219078
0.0226987
0.0235064
0.0243308
0.0251669
0.0260176
0.0268853
0.0277687
0.028668
0.0295823
0.0305183
0.0314714
0.032443
0.0334297
0.0344364
0.0354623
0.0365082
0.0375742
0.0386591
0.0397645
0.0408899
0.0420412
0.0432054
0.0443973
0.0456145
0.0468408
0.0480076
0.0492125
-0.0081164
-0.00992848
-0.0135922
-0.0169978
-0.0177034
-0.016255
-0.014218
-0.0123667
-0.0109172
-0.00988113
-0.00919954
-0.00880832
-0.00856918
-0.00820868
-0.00759389
-0.0069397
-0.00646612
-0.00614538
-0.00587467
-0.0055577
-0.00512288
-0.00462806
-0.00417961
-0.00377835
-0.00335139
-0.00287807
-0.00241712
-0.00202139
-0.00166664
-0.001287
-0.000866147
-0.000456016
-0.000101486
0.000226934
0.000590295
0.000992442
0.00139357
0.00178496
0.00220304
0.00265637
0.00310755
0.00354608
0.00400252
0.00447961
0.00493684
0.00537572
0.00583967
0.00632655
0.00680889
0.0073
0.00783014
0.00837649
0.00890396
0.00944305
0.00999453
0.0105291
0.01108
0.0116676
0.0122638
0.0128801
0.0135202
0.0141561
0.0147847
0.0154282
0.0160859
0.0167613
0.0174601
0.0181792
0.0189035
0.0196374
0.0203809
0.0211373
0.021908
0.0226988
0.0235066
0.0243309
0.025167
0.0260177
0.0268854
0.0277688
0.0286682
0.0295825
0.0305184
0.0314715
0.0324431
0.0334298
0.0344365
0.0354624
0.0365083
0.0375743
0.0386592
0.0397646
0.04089
0.0420412
0.0432055
0.0443974
0.0456146
0.0468409
0.0480079
0.0492132
-0.0083691
-0.0100468
-0.0133246
-0.016585
-0.0174443
-0.0161503
-0.0141706
-0.0123347
-0.0108921
-0.00986401
-0.00919028
-0.00879942
-0.00855216
-0.00818552
-0.00757474
-0.00692996
-0.00646182
-0.00613931
-0.00586343
-0.00554428
-0.00511287
-0.00462321
-0.00417681
-0.00377449
-0.00334681
-0.00287483
-0.00241563
-0.00202003
-0.00166424
-0.00128416
-0.000863848
-0.000454116
-9.92126e-05
0.000229592
0.000592593
0.000994086
0.00139503
0.00178656
0.00220453
0.00265756
0.00310866
0.00354731
0.00400374
0.00448066
0.00493779
0.00537664
0.0058405
0.00632725
0.00680954
0.00730064
0.00783076
0.00837709
0.00890453
0.00944359
0.00999504
0.0105295
0.0110804
0.011668
0.0122642
0.0128804
0.0135205
0.0141564
0.014785
0.0154285
0.0160862
0.0167616
0.0174604
0.0181794
0.0189038
0.0196377
0.0203812
0.0211375
0.0219082
0.022699
0.0235068
0.0243311
0.0251672
0.0260179
0.0268856
0.027769
0.0286683
0.0295826
0.0305185
0.0314717
0.0324433
0.03343
0.0344366
0.0354625
0.0365085
0.0375744
0.0386593
0.0397647
0.0408901
0.0420413
0.0432056
0.0443974
0.0456147
0.046841
0.0480082
0.049214
-0.00860565
-0.0101826
-0.0130712
-0.0161555
-0.0171605
-0.0160354
-0.0141217
-0.0123017
-0.0108647
-0.00984433
-0.0091792
-0.00878948
-0.00853417
-0.00816113
-0.00755467
-0.00692027
-0.00645832
-0.00613372
-0.00585134
-0.00552867
-0.00510043
-0.00461656
-0.00417276
-0.00376952
-0.00334124
-0.00287107
-0.00241408
-0.00201866
-0.00166161
-0.00128108
-0.000861618
-0.000452384
-9.66938e-05
0.000232988
0.00059567
0.00099625
0.00139692
0.00178869
0.00220647
0.00265895
0.00310988
0.00354877
0.00400522
0.00448192
0.00493898
0.00537787
0.00584159
0.00632812
0.00681033
0.00730141
0.0078315
0.0083778
0.00890525
0.00944428
0.00999566
0.0105301
0.0110809
0.0116685
0.0122646
0.0128809
0.013521
0.0141569
0.0147854
0.0154288
0.0160865
0.0167619
0.0174607
0.0181797
0.0189041
0.019638
0.0203814
0.0211378
0.0219085
0.0226993
0.023507
0.0243313
0.0251674
0.0260181
0.0268858
0.0277691
0.0286685
0.0295828
0.0305187
0.0314718
0.0324434
0.0334301
0.0344368
0.0354627
0.0365086
0.0375745
0.0386594
0.0397648
0.0408902
0.0420414
0.0432057
0.0443975
0.0456148
0.0468412
0.0480086
0.049215
-0.00882105
-0.0103225
-0.0128299
-0.0157118
-0.0168517
-0.0159096
-0.0140719
-0.0122685
-0.0108352
-0.00982181
-0.00916596
-0.00877847
-0.00851552
-0.0081359
-0.00753377
-0.00691022
-0.00645497
-0.0061284
-0.00583899
-0.005512
-0.00508647
-0.00460843
-0.00416741
-0.0037634
-0.00333483
-0.00286689
-0.00241241
-0.00201712
-0.00165861
-0.00127776
-0.000859573
-0.000451055
-9.4238e-05
0.000236874
0.000599436
0.000998966
0.00139932
0.00179143
0.00220896
0.00266062
0.00311123
0.00355039
0.00400688
0.0044833
0.00494037
0.00537944
0.00584303
0.00632924
0.00681131
0.00730237
0.00783234
0.00837861
0.00890612
0.00944514
0.00999645
0.0105308
0.0110816
0.011669
0.0122652
0.0128814
0.0135215
0.0141574
0.0147859
0.0154292
0.0160868
0.0167622
0.0174611
0.0181801
0.0189044
0.0196383
0.0203817
0.021138
0.0219087
0.0226995
0.0235073
0.0243316
0.0251677
0.0260183
0.026886
0.0277694
0.0286687
0.029583
0.0305189
0.031472
0.0324436
0.0334303
0.0344369
0.0354628
0.0365087
0.0375747
0.0386596
0.039765
0.0408903
0.0420416
0.0432058
0.0443976
0.0456149
0.0468413
0.048009
0.0492163
-0.00900736
-0.0104583
-0.0126071
-0.0152606
-0.0165177
-0.0157707
-0.0140205
-0.0122354
-0.0108039
-0.00979618
-0.00915029
-0.00876627
-0.0084962
-0.00810983
-0.00751191
-0.00689945
-0.00645128
-0.00612292
-0.0058264
-0.00549474
-0.00507157
-0.00459921
-0.00416096
-0.00375629
-0.00332769
-0.00286238
-0.00241063