/*--------------------------------*- C++ -*----------------------------------*\
| =========                 |                                                 |
| \\      /  F ield         | OpenFOAM: The Open Source CFD Toolbox           |
|  \\    /   O peration     | Version:  2506                                  |
|   \\  /    A nd           | Website:  www.openfoam.com                      |
|    \\/     M anipulation  |                                                 |
\*---------------------------------------------------------------------------*/
FoamFile
{
    version     2.0;
    format      ascii;
    arch        "LSB;label=32;scalar=64";
    class       volScalarField;
    location    "2.85";
    object      p;
}
// * * * * * * * * * * * * * * * * * * * * * * * * * * * * * * * * * * * * * //

dimensions      [0 2 -2 0 0 0 0];

internalField   nonuniform List<scalar> 
9600
(
-2.43793e-12
6.76428e-05
-0.000993097
-0.00260494
-0.000749676
0.00209274
-0.00114492
-0.00259042
-0.000902711
-0.000493342
-0.000583227
0.00114199
0.00172525
0.00256104
0.0036174
0.00418717
0.00664311
0.00883876
0.0104884
0.0142078
2.90592e-06
3.25172e-05
-0.000994017
-0.00258437
-0.000751174
0.00203393
-0.00113661
-0.00259102
-0.000902387
-0.000469748
-0.000588736
0.00114255
0.00173436
0.00254772
0.00361489
0.00414871
0.00664163
0.00855189
0.0105256
0.0137116
5.01265e-06
7.23849e-06
-0.000991583
-0.00256411
-0.00076431
0.00197415
-0.00112513
-0.00258908
-0.000895288
-0.000450281
-0.000597538
0.00114085
0.00174481
0.0025213
0.00360106
0.00410394
0.00663138
0.00840211
0.0105206
0.013105
5.6304e-06
-1.64421e-05
-0.000988485
-0.00254733
-0.000776477
0.00191353
-0.00111985
-0.00257994
-0.000883544
-0.000437587
-0.000605232
0.00113278
0.00175589
0.00248868
0.00358292
0.00406051
0.00661734
0.00826439
0.01045
0.0125976
5.29779e-06
-3.8381e-05
-0.000985682
-0.00253159
-0.000783052
0.00184931
-0.00111882
-0.00256213
-0.000868834
-0.000430048
-0.00061264
0.00111945
0.00177004
0.00245404
0.00356676
0.00401392
0.00660394
0.00808303
0.0103504
0.0121526
4.36032e-06
-5.8263e-05
-0.000983428
-0.00251543
-0.000784096
0.00178283
-0.00111923
-0.00253669
-0.000852349
-0.000426494
-0.000620822
0.00110427
0.00178635
0.00241844
0.00355212
0.00396418
0.0065889
0.00792279
0.0102258
0.011735
3.04e-06
-7.62665e-05
-0.000982
-0.00249798
-0.000779979
0.00171522
-0.00111951
-0.00250521
-0.000834707
-0.000425434
-0.000629924
0.00108849
0.00180316
0.00238159
0.00353844
0.00391244
0.00656822
0.00776942
0.0100675
0.0113384
1.53427e-06
-9.30381e-05
-0.000981432
-0.00247863
-0.000771698
0.00164649
-0.0011186
-0.00246937
-0.000815963
-0.000425451
-0.000639954
0.00107231
0.00181981
0.0023427
0.0035252
0.0038595
0.00653916
0.00762191
0.00987217
0.0109616
-4.21611e-08
-0.000109323
-0.000981458
-0.00245731
-0.000761132
0.00157631
-0.00111603
-0.00243067
-0.000796048
-0.000425653
-0.000650933
0.00105591
0.00183599
0.00230092
0.00351112
0.003807
0.00649929
0.00748116
0.00964022
0.0106179
-1.63651e-06
-0.000125715
-0.000981771
-0.00243451
-0.000750025
0.00150454
-0.0011119
-0.00239034
-0.000775048
-0.000425552
-0.000662933
0.0010392
0.00185151
0.00225591
0.00349476
0.00375682
0.00644596
0.00734716
0.00937263
0.0102634
-3.20468e-06
-0.000142617
-0.000982193
-0.0024108
-0.000739405
0.00143117
-0.00110651
-0.00234926
-0.000753206
-0.000424844
-0.000676173
0.00102207
0.00186634
0.00220794
0.00347464
0.00371028
0.00637671
0.00721895
0.00907205
0.00991187
-4.7186e-06
-0.000160289
-0.000982633
-0.00238664
-0.000729698
0.00135631
-0.00110018
-0.00230811
-0.00073082
-0.00042329
-0.000690946
0.0010045
0.00188024
0.00215762
0.0034494
0.0036678
0.00628945
0.00709457
0.00874349
0.00955706
-6.16876e-06
-0.000178884
-0.000983045
-0.00236221
-0.000721006
0.00128012
-0.00109314
-0.00226731
-0.000708221
-0.000420622
-0.000707537
0.000986444
0.00189274
0.00210593
0.0034176
0.00362911
0.00618319
0.00697093
0.00839299
0.00919322
-7.54681e-06
-0.000198488
-0.00098341
-0.00233758
-0.0007133
0.00120276
-0.00108556
-0.00222712
-0.000685796
-0.000416467
-0.000726247
0.000967781
0.00190346
0.0020538
0.00337787
0.00359348
0.00605825
0.00684394
0.00802685
0.00881642
-8.84444e-06
-0.000219157
-0.00098373
-0.00231272
-0.000706525
0.00112445
-0.00107758
-0.00218763
-0.000663959
-0.000410409
-0.000747395
0.000948398
0.00191214
0.00200178
0.00332917
0.00355964
0.00591588
0.00670943
0.00765115
0.00842501
-1.00582e-05
-0.000240924
-0.00098402
-0.00228757
-0.000700673
0.00104543
-0.00106938
-0.00214884
-0.000643158
-0.000402059
-0.000771232
0.000928176
0.00191854
0.0019501
0.00327111
0.00352571
0.00575797
0.00656388
0.00727098
0.00801894
-1.11937e-05
-0.000263804
-0.000984315
-0.00226205
-0.000695813
0.000965918
-0.00106115
-0.0021106
-0.000623877
-0.000391116
-0.000797888
0.000906952
0.00192244
0.00189866
0.00320395
0.00348939
0.00558628
0.00640458
0.00689015
0.00759898
-1.22708e-05
-0.000287786
-0.000984664
-0.0022361
-0.000692089
0.00088622
-0.00105311
-0.00207279
-0.000606559
-0.000377383
-0.000827445
0.000884426
0.00192395
0.00184699
0.00312845
0.00344816
0.00540171
0.00623055
0.00651165
0.00716607
-1.3322e-05
-0.000312842
-0.000985127
-0.00220963
-0.000689724
0.000806659
-0.00104551
-0.00203528
-0.000591652
-0.000360651
-0.000859837
0.00085997
0.00192346
0.00179426
0.00304539
0.00340017
0.00520491
0.00604192
0.00613774
0.00672099
-1.4394e-05
-0.000338921
-0.000985794
-0.00218252
-0.000688993
0.000727566
-0.00103863
-0.00199792
-0.000579662
-0.000340794
-0.000894571
0.000832508
0.00192157
0.00173932
0.00295501
0.00334484
0.00499624
0.00583864
0.00577039
0.00626481
-1.55577e-05
-0.000365932
-0.000986777
-0.00215466
-0.000690203
0.000649306
-0.00103274
-0.0019606
-0.000570953
-0.000318069
-0.000931034
0.000800881
0.00191918
0.00168089
0.00285703
0.00328243
0.00477522
0.00562055
0.00541249
0.00579908
-1.69036e-05
-0.000393738
-0.00098822
-0.00212591
-0.000693677
0.000572252
-0.00102816
-0.00192326
-0.000565715
-0.000292892
-0.000968443
0.000763713
0.00191707
0.00161822
0.00275083
0.00321384
0.00454127
0.00538636
0.00506753
0.00532635
-1.85449e-05
-0.000422156
-0.000990314
-0.00209612
-0.000699742
0.000496704
-0.00102511
-0.00188588
-0.000564155
-0.000265758
-0.00100537
0.000719349
0.00191532
0.00155137
0.00263491
0.00314038
0.00429526
0.00513337
0.00473835
0.00485084
-2.06286e-05
-0.000450962
-0.000993238
-0.00206517
-0.000708707
0.000422942
-0.00102379
-0.00184861
-0.000566333
-0.000237672
-0.0010402
0.000666515
0.00191362
0.00148108
0.00250703
0.00306301
0.00403974
0.00485832
0.00442619
0.00437882
-2.33306e-05
-0.000479875
-0.00099721
-0.00203294
-0.000720835
0.000351189
-0.00102428
-0.00181177
-0.000571966
-0.000209854
-0.00107162
0.000604201
0.00191127
0.00140876
0.00236478
0.00298148
0.003779
0.00455844
0.00412984
0.00391859
-2.6853e-05
-0.000508545
-0.00100252
-0.00199933
-0.00073635
0.000281569
-0.00102653
-0.00177586
-0.000580548
-0.000183461
-0.00109859
0.000531533
0.00190693
0.0013362
0.00220599
0.00289385
0.0035188
0.0042326
0.00384527
0.00348012
-3.14431e-05
-0.000536551
-0.0010094
-0.00196435
-0.000755444
0.000214138
-0.00103036
-0.00174152
-0.000591403
-0.000159689
-0.00112054
0.000448459
0.00189879
0.00126499
0.00202929
0.00279723
0.00326538
0.0038818
0.00356532
0.00307434
-3.73771e-05
-0.000563454
-0.00101805
-0.00192807
-0.000778275
0.000148724
-0.00103515
-0.00170964
-0.000604036
-0.000139434
-0.00113729
0.000355686
0.0018846
0.00119672
0.00183435
0.00268755
0.00302458
0.0035096
0.00327917
0.00271027
-4.49407e-05
-0.000588827
-0.00102865
-0.00189056
-0.000804784
8.50004e-05
-0.00104002
-0.00168149
-0.000618374
-0.00012309
-0.001149
0.000253952
0.00186157
0.00113314
0.00162218
0.00255938
0.0028006
0.00312339
0.00297428
0.00239013
-5.447e-05
-0.000612193
-0.00104138
-0.00185208
-0.000834614
2.23846e-05
-0.00104393
-0.00165786
-0.000634798
-0.000110995
-0.00115636
0.000143912
0.00182721
0.00107547
0.00139494
0.00240735
0.00259484
0.00273422
0.0026398
0.00210449
-6.63101e-05
-0.000633089
-0.00105627
-0.00181296
-0.000867342
-4.00974e-05
-0.00104573
-0.00163889
-0.000654184
-0.000103358
-0.00115995
2.61059e-05
0.00177918
0.00102403
0.00115575
0.0022273
0.00240546
0.00235454
0.00227137
0.0018354
-8.07742e-05
-0.000651114
-0.00107328
-0.00177371
-0.000902273
-0.000103518
-0.00104468
-0.0016245
-0.000677654
-0.000100188
-0.00116024
-9.88985e-05
0.00171494
0.000978647
0.000908762
0.00201619
0.00222759
0.00199594
0.00187449
0.00156049
-9.81926e-05
-0.000665897
-0.00109222
-0.00173519
-0.00093825
-0.000168924
-0.00104048
-0.00161392
-0.000706721
-0.000101962
-0.00115744
-0.000230155
0.00163192
0.000938735
0.000658735
0.00177235
0.00205456
0.00166679
0.00146136
0.00125954
-0.000118898
-0.000677126
-0.00111259
-0.00169857
-0.000973927
-0.000237124
-0.00103359
-0.00160553
-0.000742605
-0.000109559
-0.00115176
-0.000366707
0.00152751
0.000902805
0.000411217
0.00149611
0.00187907
0.00137042
0.00104522
0.000923196
-0.000143161
-0.000684775
-0.00113361
-0.00166512
-0.00100811
-0.000308419
-0.00102538
-0.00159753
-0.000785915
-0.000121734
-0.00114385
-0.000507824
0.00139966
0.000868991
0.000172306
0.00118913
0.00169371
0.00110692
0.000638003
0.000553785
-0.000171192
-0.000689146
-0.00115411
-0.00163596
-0.00104005
-0.000382391
-0.00101746
-0.00158893
-0.000836953
-0.000144748
-0.00113445
-0.0006522
0.00124668
0.000834604
-5.16206e-05
0.000854316
0.00149068
0.000875239
0.000249506
0.000159029
-0.000203118
-0.000690896
-0.00117262
-0.00161165
-0.00106986
-0.000458234
-0.0010114
-0.00157942
-0.000895379
-0.0001795
-0.00112364
-0.000798151
0.00106721
0.000795568
-0.000253655
0.000496911
0.00126106
0.0006724
-0.000111255
-0.000252249
-0.000238928
-0.0006912
-0.00118749
-0.00159177
-0.00109872
-0.000535403
-0.0010084
-0.00156903
-0.000960691
-0.000227349
-0.00111277
-0.000943677
0.000861689
0.000746751
-0.000428349
0.000124982
0.000996009
0.000491911
-0.000434942
-0.000670675
-0.000278478
-0.000691316
-0.0011976
-0.00157528
-0.00112774
-0.000614007
-0.00100997
-0.00155821
-0.00103196
-0.000288848
-0.00110248
-0.00108505
0.000632617
0.000681753
-0.000573791
-0.00025076
0.000689091
0.000321762
-0.000713604
-0.00108421
-0.000321563
-0.000692134
-0.00120238
-0.00156134
-0.00115729
-0.000694579
-0.00101863
-0.0015475
-0.00110663
-0.0003642
-0.00109472
-0.00121832
0.00038406
0.000593691
-0.000692227
-0.000618734
0.000338749
0.000145382
-0.000943656
-0.0014768
-0.000367726
-0.000694546
-0.00120188
-0.00154916
-0.00118746
-0.000777613
-0.00103697
-0.00153695
-0.00118196
-0.000453325
-0.00109228
-0.00134054
0.00012105
0.000476948
-0.000789341
-0.000967993
-4.99597e-05
-5.44619e-05
-0.00112979
-0.00183119
-0.000415954
-0.000699328
-0.00119702
-0.00153836
-0.00121789
-0.000862553
-0.00106721
-0.00152526
-0.00125659
-0.000554381
-0.00109721
-0.00144989
-0.000151
0.000328372
-0.000872479
-0.00128926
-0.000466854
-0.000291782
-0.00128551
-0.00213346
-0.000465503
-0.00070675
-0.00118919
-0.00152854
-0.00124874
-0.000947629
-0.00110991
-0.00152557
-0.00133065
-0.000663661
-0.00111105
-0.00154663
-0.000426487
0.000147439
-0.000949553
-0.00157577
-0.000899406
-0.00057401
-0.0014289
-0.00237788
-0.000515983
-0.000716858
-0.00117912
-0.00152
-0.00128016
-0.00103171
-0.00116665
-0.00154282
-0.00140394
-0.000777516
-0.00113457
-0.00163217
-0.000700163
-6.45227e-05
-0.00102914
-0.00182378
-0.00133385
-0.000901991
-0.00157895
-0.00256977
-0.000566524
-0.000729983
-0.00116772
-0.00151393
-0.00131172
-0.00111506
-0.0012389
-0.00157018
-0.00147416
-0.000895619
-0.00116981
-0.00170887
-0.000968072
-0.000304954
-0.00112044
-0.00203376
-0.00175576
-0.00127155
-0.00175284
-0.00272273
-0.000616186
-0.00074677
-0.00115723
-0.00151113
-0.00135048
-0.00119683
-0.00131131
-0.00160304
-0.00154549
-0.00102048
-0.00122057
-0.0017816
-0.00122805
-0.000570324
-0.00123213
-0.00221101
-0.00215115
-0.00167262
-0.00196303
-0.002854
-0.000664572
-0.000767469
-0.0011497
-0.00151288
-0.00139473
-0.00127338
-0.00138131
-0.00164454
-0.00162118
-0.00115098
-0.00128692
-0.00185305
-0.00147785
-0.000855568
-0.00137038
-0.00236487
-0.00250974
-0.00209046
-0.00221522
-0.00298184
-0.000711487
-0.000792389
-0.00114607
-0.00151809
-0.00144312
-0.00134789
-0.00145155
-0.00169293
-0.00170014
-0.00128742
-0.00137059
-0.0019258
-0.00171403
-0.00115373
-0.00153722
-0.00250504
-0.00282687
-0.00250881
-0.00250801
-0.00312276
-0.000756876
-0.000821665
-0.00114684
-0.00152525
-0.00149677
-0.00142409
-0.00152078
-0.00174533
-0.00178441
-0.00143128
-0.00147131
-0.00200144
-0.00193426
-0.00145717
-0.00173211
-0.00264171
-0.00310406
-0.00291308
-0.00283438
-0.00328989
-0.000800668
-0.000854902
-0.00115287
-0.00153497
-0.00155534
-0.00150276
-0.00158975
-0.00180163
-0.00187238
-0.00158043
-0.0015869
-0.00208227
-0.00213962
-0.00176068
-0.00195315
-0.00278458
-0.00334673
-0.00329193
-0.00318253
-0.00348947
-0.000842907
-0.000891774
-0.00116533
-0.0015473
-0.00161727
-0.00158583
-0.00166091
-0.00186039
-0.00196105
-0.00173313
-0.00171884
-0.00217227
-0.00233125
-0.00205911
-0.00219539
-0.00293964
-0.00356241
-0.00363889
-0.00353948
-0.00372134
-0.000883814
-0.000931872
-0.00118528
-0.00156258
-0.00168056
-0.00167373
-0.00173639
-0.00192185
-0.00204999
-0.00188866
-0.00186668
-0.00227379
-0.00250958
-0.00234705
-0.00245338
-0.00311064
-0.00376095
-0.00395334
-0.00389362
-0.00398065
-0.000923946
-0.000975072
-0.00121404
-0.00157912
-0.00174263
-0.00176589
-0.00181899
-0.00198794
-0.00213932
-0.00204361
-0.00202607
-0.00238933
-0.00267967
-0.00262239
-0.0027221
-0.00329848
-0.00394964
-0.00423602
-0.00423358
-0.00425885
-0.000964352
-0.00102125
-0.00124952
-0.00160067
-0.00180263
-0.00186142
-0.0019104
-0.00206072
-0.00222913
-0.00219582
-0.00219396
-0.00251982
-0.00284696
-0.00288466
-0.00299484
-0.00350119
-0.00413364
-0.00449007
-0.00455214
-0.00454705
-0.00100589
-0.00106972
-0.00129205
-0.00162808
-0.00186085
-0.00195802
-0.00201048
-0.00214277
-0.00232034
-0.00234454
-0.00236862
-0.00266391
-0.00301261
-0.00313333
-0.0032661
-0.0037165
-0.00431897
-0.00472235
-0.00484707
-0.00483645
-0.00104933
-0.00112026
-0.00134064
-0.00166256
-0.00191799
-0.00205356
-0.00211819
-0.00223616
-0.00241519
-0.00248865
-0.00254635
-0.00282006
-0.00317775
-0.00336899
-0.00353369
-0.00394158
-0.00450912
-0.00493921
-0.00511758
-0.00511864
-0.00109525
-0.0011728
-0.00139433
-0.00170496
-0.00197561
-0.002147
-0.00223152
-0.00234092
-0.00251684
-0.00262923
-0.00272229
-0.00298553
-0.00334563
-0.00359325
-0.00379552
-0.00417295
-0.00470373
-0.00514547
-0.00536485
-0.00538719
-0.00114406
-0.0012274
-0.00145246
-0.00175558
-0.00203589
-0.0022383
-0.00234773
-0.0024555
-0.0026272
-0.00276895
-0.00289488
-0.00315592
-0.00351717
-0.00380806
-0.00404867
-0.00440786
-0.00490214
-0.005345
-0.00559292
-0.00563781
-0.00119619
-0.00128443
-0.00151407
-0.0018141
-0.00210103
-0.00232831
-0.00246449
-0.00257828
-0.00274628
-0.0029096
-0.0030658
-0.00332835
-0.00368973
-0.00401486
-0.00429128
-0.00464318
-0.00510454
-0.00554024
-0.00580698
-0.00586977
-0.00125191
-0.0013443
-0.00157889
-0.00187991
-0.00217247
-0.00241829
-0.00258035
-0.00270702
-0.00287398
-0.00305192
-0.00323485
-0.00350281
-0.00386208
-0.00421352
-0.00452296
-0.00487483
-0.00530973
-0.0057325
-0.00601085
-0.00608609
-0.00131144
-0.00140753
-0.00164693
-0.00195197
-0.00225055
-0.00251017
-0.00269539
-0.00283854
-0.00300898
-0.00319758
-0.00340103
-0.00367765
-0.00403525
-0.00440403
-0.00474321
-0.00510021
-0.00551483
-0.00592225
-0.00620595
-0.00629021
-0.00137494
-0.00147457
-0.00171846
-0.00202922
-0.00233496
-0.00260576
-0.00281065
-0.00297069
-0.00314842
-0.00334736
-0.00356596
-0.00385006
-0.00420828
-0.00458773
-0.00495063
-0.00531764
-0.0057175
-0.00610916
-0.00639287
-0.00648374
-0.0014426
-0.00154574
-0.0017939
-0.002111
-0.00242519
-0.0027059
-0.00292697
-0.0031034
-0.00328974
-0.00349865
-0.00373103
-0.00401997
-0.00437836
-0.00476561
-0.00514476
-0.0055237
-0.00591566
-0.0062924
-0.00657256
-0.00666751
-0.00151455
-0.00162132
-0.00187371
-0.00219703
-0.00252057
-0.00281077
-0.00304515
-0.00323689
-0.00343246
-0.0036493
-0.00389371
-0.00418798
-0.00454419
-0.00493644
-0.00532681
-0.00571519
-0.0061056
-0.0064705
-0.00674507
-0.00684201
-0.00159107
-0.00170148
-0.00195814
-0.00228745
-0.00262037
-0.00292012
-0.00316583
-0.00337072
-0.00357599
-0.00379971
-0.00405189
-0.00435158
-0.00470547
-0.00509806
-0.00549683
-0.00589177
-0.00628288
-0.00664058
-0.00690882
-0.00700598
-0.00167245
-0.00178631
-0.00204739
-0.00238248
-0.00272416
-0.00303344
-0.00328957
-0.00350523
-0.00371877
-0.00394896
-0.00420598
-0.004508
-0.00486012
-0.00524947
-0.00565281
-0.00605341
-0.00644478
-0.0067991
-0.00706208
-0.00715923
-0.00175889
-0.00187599
-0.00214146
-0.00248233
-0.00283207
-0.00315025
-0.00341593
-0.00364099
-0.00386064
-0.00409505
-0.00435553
-0.00465682
-0.00500503
-0.00538943
-0.00579256
-0.00619765
-0.00658936
-0.00694206
-0.00720287
-0.00730055
-0.00185051
-0.00197056
-0.00224034
-0.00258686
-0.00294428
-0.00327067
-0.00354446
-0.00377747
-0.00400212
-0.00423765
-0.00449871
-0.00479755
-0.00513829
-0.00551513
-0.00591405
-0.00632034
-0.00671325
-0.00706527
-0.00732694
-0.00742678
-0.00194749
-0.00207016
-0.00234399
-0.00269607
-0.00306059
-0.0033946
-0.00367563
-0.00391466
-0.0041428
-0.0043775
-0.00463494
-0.00492838
-0.00525845
-0.00562316
-0.00601345
-0.00641604
-0.00680979
-0.00716295
-0.00742794
-0.00753329
-0.00205001
-0.00217473
-0.00245236
-0.00280993
-0.00318105
-0.00352195
-0.00380948
-0.00405334
-0.00428271
-0.00451467
-0.00476533
-0.00504845
-0.00536363
-0.00571035
-0.00608453
-0.00647611
-0.00686673
-0.0072231
-0.00749575
-0.00761292
-0.00215821
-0.00228436
-0.0025655
-0.0029278
-0.00330536
-0.00365317
-0.00394681
-0.00419443
-0.00442301
-0.00464912
-0.0048897
-0.00515766
-0.00545211
-0.00577378
-0.00612269
-0.00649207
-0.00686759
-0.00722147
-0.00750492
-0.00764429
-0.00227252
-0.00240034
-0.00268256
-0.00304912
-0.00343302
-0.00378778
-0.00408851
-0.0043403
-0.00456722
-0.00478349
-0.00500749
-0.00525325
-0.00552042
-0.00580897
-0.00612276
-0.00645954
-0.00680624
-0.00714004
-0.0074173
-0.00757303
-0.00239234
-0.00252052
-0.00280402
-0.00317465
-0.00356378
-0.00392524
-0.00423459
-0.00449421
-0.0047234
-0.00492803
-0.0051252
-0.00533394
-0.00555627
-0.00579947
-0.00607219
-0.00637429
-0.0066939
-0.00700258
-0.0072584
-0.00739976
-0.00251572
-0.00264415
-0.00293146
-0.00330459
-0.00369572
-0.0040625
-0.00438302
-0.00465704
-0.00490048
-0.0051109
-0.00528355
-0.00542267
-0.00552949
-0.00563032
-0.00577076
-0.00599104
-0.00630802
-0.00669916
-0.00711032
-0.00743825
-0.00264531
-0.00277656
-0.00306423
-0.00343504
-0.00382386
-0.00419275
-0.00452407
-0.00481994
-0.00508788
-0.00533806
-0.00558307
-0.00580311
-0.00590467
-0.0058166
-0.00563768
-0.00549476
-0.00540649
-0.00534351
-0.00530312
-0.0053392
-0.00278476
-0.00291833
-0.003202
-0.00356625
-0.00394888
-0.00431305
-0.00464878
-0.0049616
-0.00525092
-0.00546186
-0.0055202
-0.0054547
-0.00535779
-0.00530978
-0.00532612
-0.00539702
-0.0055039
-0.00563145
-0.00578174
-0.00598384
-0.0029359
-0.00305113
-0.00333147
-0.00369881
-0.00409732
-0.00449074
-0.00483225
-0.00505666
-0.00515902
-0.00520966
-0.00527175
-0.00536691
-0.00546691
-0.00556497
-0.00562455
-0.00561201
-0.00554193
-0.00542925
-0.00532825
-0.00531876
-0.00312662
-0.00323074
-0.0034272
-0.00370351
-0.00402678
-0.00435699
-0.0046563
-0.00489069
-0.00506948
-0.00520318
-0.0052994
-0.00539318
-0.00547966
-0.00557513
-0.00573557
-0.0059804
-0.00632741
-0.00676029
-0.00722884
-0.00765029
-0.00330715
-0.00342774
-0.00357208
-0.00377745
-0.00405091
-0.00436037
-0.00466995
-0.00493493
-0.00514111
-0.00530691
-0.00541614
-0.00549441
-0.00556596
-0.00559723
-0.00559937
-0.00556118
-0.00548398
-0.00539733
-0.00535228
-0.00543635
-0.00340463
-0.0035252
-0.00368759
-0.0038887
-0.00412807
-0.00438764
-0.00465031
-0.00488159
-0.00505994
-0.00521396
-0.00533572
-0.00542042
-0.00550836
-0.00559008
-0.00566329
-0.00574433
-0.0058331
-0.00594246
-0.0060934
-0.00634134
0.019433
0.0118338
0.00201895
-0.00454099
-0.00677567
-0.00656781
-0.00592028
-0.00570059
-0.0060229
-0.00666339
-0.00728472
-0.00764607
-0.00779364
-0.00795356
-0.00822589
-0.0085688
-0.00894098
-0.00923669
-0.00935898
-0.00942148
-0.00959814
-0.00989223
-0.010202
-0.0104566
-0.0106674
-0.0109128
-0.0112389
-0.0115993
-0.0119279
-0.0122283
-0.0125417
-0.0128618
-0.0131457
-0.0133924
-0.0136517
-0.0139467
-0.0142452
-0.0145216
-0.0148026
-0.0151227
-0.0154657
-0.0157979
-0.0161272
-0.0164757
-0.0168257
-0.0171507
-0.017471
-0.0178112
-0.0181545
-0.018484
-0.0188299
-0.019209
-0.0195852
-0.0199569
-0.0203515
-0.0207408
-0.0211161
-0.0215057
-0.0219037
-0.0223037
-0.0227246
-0.0231569
-0.0235867
-0.0240173
-0.0244512
-0.0248864
-0.025334
-0.0257976
-0.0262709
-0.0267477
-0.0272294
-0.0277143
-0.0282057
-0.0287076
-0.0292213
-0.0297451
-0.0302766
-0.0308135
-0.0313575
-0.0319117
-0.032476
-0.0330504
-0.0336343
-0.0342278
-0.0348321
-0.0354445
-0.036067
-0.0366998
-0.0373449
-0.0379986
-0.0386649
-0.0393386
-0.0400256
-0.0407202
-0.0414316
-0.0421407
-0.04287
-0.0435996
-0.0442543
-0.0449349
0.0182752
0.0116937
0.00211595
-0.0044201
-0.0067014
-0.0065274
-0.00589213
-0.00568017
-0.00600845
-0.00665317
-0.00727743
-0.00764055
-0.00778884
-0.00794899
-0.00822151
-0.00856467
-0.00893732
-0.00923368
-0.00935625
-0.0094187
-0.00959543
-0.00988981
-0.0101999
-0.0104547
-0.0106657
-0.0109111
-0.0112373
-0.0115978
-0.0119265
-0.012227
-0.0125404
-0.0128606
-0.0131447
-0.0133913
-0.0136507
-0.0139458
-0.0142443
-0.0145208
-0.0148018
-0.015122
-0.015465
-0.0157972
-0.0161266
-0.0164751
-0.0168252
-0.0171502
-0.0174705
-0.0178107
-0.0181541
-0.0184835
-0.0188295
-0.0192086
-0.0195848
-0.0199565
-0.0203512
-0.0207405
-0.0211158
-0.0215054
-0.0219034
-0.0223034
-0.0227243
-0.0231566
-0.0235864
-0.024017
-0.024451
-0.0248861
-0.0253337
-0.0257974
-0.0262707
-0.0267475
-0.0272292
-0.0277141
-0.0282055
-0.0287075
-0.0292211
-0.0297449
-0.0302764
-0.0308134
-0.0313574
-0.0319116
-0.0324759
-0.0330502
-0.0336342
-0.0342277
-0.0348319
-0.0354443
-0.0360669
-0.0366997
-0.0373448
-0.0379985
-0.0386648
-0.0393385
-0.0400255
-0.0407201
-0.0414316
-0.0421407
-0.0428699
-0.0435995
-0.0442542
-0.0449349
0.0173317
0.0116338
0.00234679
-0.00418082
-0.00657733
-0.00648169
-0.00586907
-0.00566041
-0.00599093
-0.00663856
-0.00726577
-0.00763176
-0.00778253
-0.00794447
-0.00821794
-0.00856124
-0.00893398
-0.00923071
-0.00935356
-0.0094161
-0.00959295
-0.00988755
-0.0101979
-0.0104529
-0.010664
-0.0109095
-0.0112358
-0.0115965
-0.0119254
-0.0122259
-0.0125394
-0.0128597
-0.0131438
-0.0133904
-0.0136498
-0.013945
-0.0142436
-0.01452
-0.0148011
-0.0151213
-0.0154643
-0.0157967
-0.016126
-0.0164745
-0.0168247
-0.0171498
-0.01747
-0.0178103
-0.0181537
-0.0184831
-0.0188291
-0.0192082
-0.0195845
-0.0199562
-0.0203509
-0.0207402
-0.0211155
-0.0215052
-0.0219031
-0.0223031
-0.0227241
-0.0231564
-0.0235862
-0.0240168
-0.0244508
-0.0248859
-0.0253336
-0.0257972
-0.0262705
-0.0267474
-0.0272291
-0.027714
-0.0282054
-0.0287073
-0.029221
-0.0297448
-0.0302763
-0.0308132
-0.0313572
-0.0319115
-0.0324757
-0.0330501
-0.0336341
-0.0342276
-0.0348318
-0.0354443
-0.0360668
-0.0366996
-0.0373447
-0.0379984
-0.0386648
-0.0393384
-0.0400254
-0.0407201
-0.0414315
-0.0421406
-0.0428699
-0.0435995
-0.0442542
-0.0449349
0.0164674
0.0115551
0.00262129
-0.00388508
-0.0064158
-0.00642552
-0.00584156
-0.00563428
-0.00596679
-0.00661749
-0.00724668
-0.0076155
-0.00777087
-0.00793755
-0.0082139
-0.00855772
-0.00892983
-0.00922644
-0.00935001
-0.00941338
-0.00959056
-0.009885
-0.0101953
-0.0104506
-0.010662
-0.0109077
-0.0112341
-0.011595
-0.0119241
-0.0122248
-0.0125383
-0.0128587
-0.0131428
-0.0133895
-0.0136489
-0.0139441
-0.0142428
-0.0145193
-0.0148003
-0.0151206
-0.0154637
-0.015796
-0.0161254
-0.016474
-0.0168242
-0.0171493
-0.0174695
-0.0178099
-0.0181533
-0.0184827
-0.0188287
-0.0192079
-0.0195841
-0.0199558
-0.0203505
-0.0207399
-0.0211152
-0.0215049
-0.0219029
-0.0223029
-0.0227238
-0.0231561
-0.023586
-0.0240166
-0.0244506
-0.0248857
-0.0253334
-0.025797
-0.0262703
-0.0267472
-0.0272289
-0.0277138
-0.0282052
-0.0287072
-0.0292208
-0.0297446
-0.0302761
-0.0308131
-0.0313571
-0.0319113
-0.0324756
-0.03305
-0.033634
-0.0342275
-0.0348317
-0.0354442
-0.0360667
-0.0366995
-0.0373446
-0.0379983
-0.0386647
-0.0393383
-0.0400254
-0.04072
-0.0414314
-0.0421405
-0.0428698
-0.0435995
-0.0442542
-0.0449349
0.0155881
0.0114079
0.00289307
-0.00357268
-0.00624046
-0.00636534
-0.0058125
-0.0056039
-0.00593706
-0.00659005
-0.00721952
-0.0075905
-0.00775207
-0.00792629
-0.00820798
-0.00855315
-0.00892393
-0.00921976
-0.00934481
-0.00941042
-0.00958842
-0.00988219
-0.0101918
-0.0104474
-0.0106595
-0.0109055
-0.0112318
-0.0115928
-0.0119223
-0.0122234
-0.0125371
-0.0128575
-0.0131416
-0.0133884
-0.0136478
-0.013943
-0.0142417
-0.0145183
-0.0147994
-0.0151197
-0.0154629
-0.0157953
-0.0161247
-0.0164734
-0.0168236
-0.0171487
-0.017469
-0.0178093
-0.0181528
-0.0184822
-0.0188282
-0.0192075
-0.0195838
-0.0199554
-0.0203502
-0.0207396
-0.0211149
-0.0215046
-0.0219026
-0.0223026
-0.0227235
-0.0231559
-0.0235858
-0.0240164
-0.0244504
-0.0248855
-0.0253331
-0.0257968
-0.0262701
-0.026747
-0.0272287
-0.0277136
-0.028205
-0.028707
-0.0292207
-0.0297445
-0.030276
-0.030813
-0.031357
-0.0319112
-0.0324755
-0.0330499
-0.0336339
-0.0342274
-0.0348316
-0.0354441
-0.0360666
-0.0366994
-0.0373445
-0.0379982
-0.0386646
-0.0393382
-0.0400253
-0.0407199
-0.0414313
-0.0421405
-0.0428698
-0.0435994
-0.0442542
-0.044935
0.0146938
0.0111927
0.00315905
-0.00324731
-0.00605404
-0.0063021
-0.00578391
-0.00557214
-0.00590432
-0.00655905
-0.00718766
-0.00755972
-0.00772774
-0.00791085
-0.00819937
-0.00854661
-0.00891551
-0.00921007
-0.00933753
-0.00940706
-0.00958661
-0.00987917
-0.0101875
-0.0104434
-0.0106567
-0.0109031
-0.0112289
-0.0115895
-0.0119196
-0.0122216
-0.0125356
-0.0128559
-0.0131401
-0.0133871
-0.0136467
-0.0139418
-0.0142405
-0.0145171
-0.0147983
-0.0151186
-0.0154618
-0.0157944
-0.016124
-0.0164726
-0.0168229
-0.017148
-0.0174684
-0.0178087
-0.0181522
-0.0184817
-0.0188277
-0.019207
-0.0195833
-0.019955
-0.0203498
-0.0207392
-0.0211145
-0.0215042
-0.0219022
-0.0223022
-0.0227232
-0.0231556
-0.0235855
-0.0240161
-0.0244501
-0.0248853
-0.0253329
-0.0257966
-0.0262699
-0.0267468
-0.0272285
-0.0277134
-0.0282049
-0.0287068
-0.0292205
-0.0297443
-0.0302758
-0.0308128
-0.0313568
-0.0319111
-0.0324754
-0.0330498
-0.0336338
-0.0342273
-0.0348315
-0.0354439
-0.0360665
-0.0366993
-0.0373444
-0.0379981
-0.0386645
-0.0393381
-0.0400252
-0.0407198
-0.0414313
-0.0421404
-0.0428697
-0.0435994
-0.0442542
-0.0449352
0.0138026
0.0109208
0.00342019
-0.0029078
-0.00585514
-0.00623494
-0.0057563
-0.00554017
-0.00586953
-0.0065259
-0.0071537
-0.0075265
-0.00770078
-0.00789288
-0.00818848
-0.00853781
-0.00890437
-0.00919747
-0.00932831
-0.0094032
-0.00958497
-0.00987594
-0.0101824
-0.0104388
-0.010654
-0.0109009
-0.0112255
-0.0115852
-0.0119158
-0.0122189
-0.0125335
-0.0128537
-0.0131381
-0.0133857
-0.0136456
-0.0139405
-0.014239
-0.0145158
-0.0147971
-0.0151172
-0.0154605
-0.0157932
-0.016123
-0.0164717
-0.016822
-0.0171472
-0.0174676
-0.017808
-0.0181515
-0.018481
-0.018827
-0.0192064
-0.0195827
-0.0199545
-0.0203493
-0.0207388
-0.0211141
-0.0215038
-0.0219018
-0.0223018
-0.0227229
-0.0231553
-0.0235852
-0.0240158
-0.0244498
-0.024885
-0.0253326
-0.0257963
-0.0262697
-0.0267466
-0.0272283
-0.0277132
-0.0282046
-0.0287066
-0.0292203
-0.0297442
-0.0302757
-0.0308127
-0.0313567
-0.0319109
-0.0324752
-0.0330496
-0.0336336
-0.0342272
-0.0348314
-0.0354438
-0.0360664
-0.0366992
-0.0373443
-0.037998
-0.0386644
-0.0393381
-0.0400251
-0.0407197
-0.0414312
-0.0421403
-0.0428696
-0.0435994
-0.0442543
-0.0449355
0.0129299
0.0105973
0.00367085
-0.00255676
-0.00564384
-0.00616358
-0.00573014
-0.00550869
-0.00583299
-0.00649085
-0.0071184
-0.0074921
-0.00767261
-0.00787359
-0.00817606
-0.00852718
-0.00889105
-0.00918265
-0.00931755
-0.00939884
-0.00958329
-0.00987241
-0.0101767
-0.0104339
-0.0106515
-0.0108993
-0.0112223
-0.0115802
-0.011911
-0.0122154
-0.0125305
-0.0128506
-0.0131354
-0.0133839
-0.0136443
-0.013939
-0.0142373
-0.0145144
-0.0147958
-0.0151157
-0.0154587
-0.0157916
-0.0161217
-0.0164705
-0.0168208
-0.0171462
-0.0174668
-0.0178071
-0.0181506
-0.0184802
-0.0188262
-0.0192056
-0.019582
-0.0199538
-0.0203487
-0.0207382
-0.0211135
-0.0215032
-0.0219013
-0.0223013
-0.0227224
-0.0231549
-0.0235848
-0.0240154
-0.0244495
-0.0248846
-0.0253323
-0.025796
-0.0262694
-0.0267463
-0.027228
-0.027713
-0.0282044
-0.0287064
-0.0292201
-0.0297439
-0.0302755
-0.0308125
-0.0313565
-0.0319107
-0.032475
-0.0330495
-0.0336335
-0.034227
-0.0348312
-0.0354437
-0.0360662
-0.0366991
-0.0373442
-0.0379979
-0.0386643
-0.0393379
-0.040025
-0.0407196
-0.0414311
-0.0421402
-0.0428695
-0.0435994
-0.0442545
-0.0449358
0.0120874
0.0102247
0.0039012
-0.00219868
-0.00541998
-0.00608666
-0.00570493
-0.00547805
-0.0057949
-0.00645384
-0.00708176
-0.00745667
-0.00764347
-0.00785338
-0.00816264
-0.00851534
-0.00887624
-0.00916624
-0.00930559
-0.00939394
-0.00958145
-0.00986862
-0.0101705
-0.0104285
-0.0106492
-0.0108983
-0.0112195
-0.0115752
-0.0119058
-0.0122112
-0.0125266
-0.0128465
-0.0131318
-0.0133816
-0.0136428
-0.0139372
-0.0142354
-0.0145129
-0.0147946
-0.015114
-0.0154566
-0.0157897
-0.0161201
-0.0164689
-0.0168192
-0.017145
-0.0174658
-0.0178062
-0.0181495
-0.0184792
-0.0188253
-0.0192047
-0.0195811
-0.0199531
-0.020348
-0.0207376
-0.0211129
-0.0215026
-0.0219007
-0.0223008
-0.0227219
-0.0231544
-0.0235843
-0.024015
-0.0244491
-0.0248842
-0.0253319
-0.0257957
-0.0262691
-0.026746
-0.0272277
-0.0277127
-0.0282041
-0.0287061
-0.0292198
-0.0297437
-0.0302752
-0.0308123
-0.0313562
-0.0319105
-0.0324748
-0.0330493
-0.0336333
-0.0342268
-0.0348311
-0.0354435
-0.0360661
-0.0366989
-0.0373441
-0.0379978
-0.0386641
-0.0393378
-0.0400249
-0.0407195
-0.041431
-0.0421401
-0.0428694
-0.0435994
-0.0442546
-0.0449362
0.0112862
0.0098064
0.00410114
-0.00183734
-0.00518184
-0.00600156
-0.00567963
-0.00544869
-0.00575578
-0.00641497