/*--------------------------------*- C++ -*----------------------------------*\
| =========                 |                                                 |
| \\      /  F ield         | OpenFOAM: The Open Source CFD Toolbox           |
|  \\    /   O peration     | Version:  2506                                  |
|   \\  /    A nd           | Website:  www.openfoam.com                      |
|    \\/     M anipulation  |                                                 |
\*---------------------------------------------------------------------------*/
FoamFile
{
    version     2.0;
    format      ascii;
    arch        "LSB;label=32;scalar=64";
    class       surfaceScalarField;
    location    "2.85";
    object      phi;
}
// * * * * * * * * * * * * * * * * * * * * * * * * * * * * * * * * * * * * * //

dimensions      [0 3 -1 0 0 0 0];

oriented        oriented;

internalField   nonuniform List<scalar> 
19000
(
1.18848e-06
4.17501e-07
1.12683e-06
-1.20968e-08
1.14319e-06
-5.06488e-07
1.22106e-06
-3.50566e-07
1.19432e-06
7.1494e-07
1.09476e-06
1.73407e-07
1.14315e-06
4.51278e-07
1.12167e-06
-3.22948e-07
1.13255e-06
-5.67061e-07
1.17088e-06
-9.98122e-08
1.1531e-06
-2.50011e-07
1.16434e-06
6.04757e-08
1.1664e-06
2.03372e-07
1.14507e-06
2.94642e-07
1.143e-06
5.68065e-07
1.11454e-06
1.46823e-07
1.12379e-06
3.80223e-07
1.09771e-06
7.82318e-09
1.10968e-06
2.08456e-07
-1.4318e-07
1.04902e-06
1.24188e-06
3.99885e-07
1.18301e-06
4.67717e-08
1.19914e-06
-5.2262e-07
1.27639e-06
-4.27818e-07
1.24764e-06
7.43686e-07
1.15259e-06
2.68462e-07
1.19289e-06
4.10981e-07
1.17809e-06
-3.08153e-07
1.18857e-06
-5.77542e-07
1.22871e-06
-1.39944e-07
1.20962e-06
-2.30924e-07
1.22322e-06
4.68718e-08
1.22016e-06
2.0643e-07
1.20742e-06
3.07386e-07
1.19123e-06
5.84258e-07
1.17844e-06
1.59614e-07
1.16632e-06
3.92341e-07
1.16692e-06
7.22453e-09
1.15021e-06
2.25165e-07
-1.3082e-07
1.13785e-06
1.29643e-06
3.86242e-07
1.24648e-06
9.6716e-08
1.25713e-06
-5.33271e-07
1.32952e-06
-5.00205e-07
1.30369e-06
7.69514e-07
1.22005e-06
3.521e-07
1.24676e-06
3.84279e-07
1.24504e-06
-3.06438e-07
1.24808e-06
-5.80582e-07
1.28812e-06
-1.79987e-07
1.26918e-06
-2.11976e-07
1.2823e-06
3.37485e-08
1.27485e-06
2.13879e-07
1.26794e-06
3.14297e-07
1.24947e-06
6.02729e-07
1.23958e-06
1.69502e-07
1.23109e-06
4.00826e-07
1.23021e-06
8.11099e-09
1.22786e-06
2.27512e-07
-1.10793e-07
1.20783e-06
1.35321e-06
3.77134e-07
1.31683e-06
1.33093e-07
1.3183e-06
-5.3474e-07
1.38103e-06
-5.62936e-07
1.36292e-06
7.87627e-07
1.2956e-06
4.19426e-07
1.3074e-06
3.72474e-07
1.3179e-06
-3.1694e-07
1.31249e-06
-5.75172e-07
1.34737e-06
-2.14867e-07
1.33272e-06
-1.97327e-07
1.33869e-06
2.77805e-08
1.33093e-06
2.21639e-07
1.32415e-06
3.21076e-07
1.3119e-06
6.14984e-07
1.30098e-06
1.80421e-07
1.29886e-06
4.02942e-07
1.29498e-06
1.19905e-08
1.2996e-06
2.22894e-07
-8.7283e-08
1.27609e-06
1.41336e-06
3.72133e-07
1.39193e-06
1.54515e-07
1.38311e-06
-5.25912e-07
1.43217e-06
-6.12005e-07
1.42567e-06
7.94126e-07
1.37629e-06
4.68814e-07
1.3759e-06
3.72856e-07
1.3923e-06
-3.33331e-07
1.38207e-06
-5.64947e-07
1.40805e-06
-2.4085e-07
1.40016e-06
-1.89432e-07
1.39744e-06
3.05019e-08
1.38883e-06
2.30246e-07
1.38127e-06
3.28642e-07
1.37548e-06
6.20766e-07
1.36591e-06
1.89998e-07
1.3681e-06
4.00746e-07
1.36309e-06
1.69991e-08
1.37105e-06
2.14936e-07
-6.31256e-08
1.34689e-06
1.47791e-06
3.69895e-07
1.46946e-06
1.62966e-07
1.45202e-06
-5.08468e-07
1.48541e-06
-6.45396e-07
1.49167e-06
7.87867e-07
1.45931e-06
5.01171e-07
1.45162e-06
3.80548e-07
1.46723e-06
-3.48937e-07
1.45569e-06
-5.5341e-07
1.47272e-06
-2.5788e-07
1.4698e-06
-1.86515e-07
1.46167e-06
3.8636e-08
1.45079e-06
2.41122e-07
1.44311e-06
3.36323e-07
1.44267e-06
6.21205e-07
1.43605e-06
1.96624e-07
1.44191e-06
3.94877e-07
1.4361e-06
2.28112e-08
1.44626e-06
2.04774e-07
-3.86261e-08
1.42177e-06
1.54742e-06
3.68691e-07
1.54814e-06
1.62248e-07
1.52535e-06
-4.85678e-07
1.54348e-06
-6.6353e-07
1.56035e-06
7.71004e-07
1.54284e-06
5.18681e-07
1.53254e-06
3.90848e-07
1.54355e-06
-3.59953e-07
1.53161e-06
-5.41468e-07
1.54181e-06
-2.68082e-07
1.54075e-06
-1.8545e-07
1.53087e-06
4.85097e-08
1.51853e-06
2.53463e-07
1.51157e-06
3.43283e-07
1.51539e-06
6.17384e-07
1.51171e-06
2.00308e-07
1.52079e-06
3.85794e-07
1.51381e-06
2.97977e-08
1.52535e-06
1.93228e-07
-1.37055e-08
1.50043e-06
1.62168e-06
3.67142e-07
1.62773e-06
1.56197e-07
1.60292e-06
-4.60874e-07
1.60833e-06
-6.68932e-07
1.63154e-06
7.47788e-07
1.6261e-06
5.24122e-07
1.61654e-06
4.00407e-07
1.62212e-06
-3.65531e-07
1.60906e-06
-5.28409e-07
1.61451e-06
-2.7353e-07
1.61336e-06
-1.84304e-07
1.60389e-06
5.79807e-08
1.59207e-06
2.65286e-07
1.58689e-06
3.48457e-07
1.59406e-06
6.10221e-07
1.59231e-06
2.02056e-07
1.60389e-06
3.74213e-07
1.59527e-06
3.84204e-08
1.60753e-06
1.80969e-07
1.14151e-08
1.5824e-06
1.70008e-06
3.64637e-07
1.70862e-06
1.47658e-07
1.68424e-06
-4.365e-07
1.68055e-06
-6.65233e-07
1.70577e-06
7.22567e-07
1.7093e-06
5.20586e-07
1.70233e-06
4.07375e-07
1.70329e-06
-3.66489e-07
1.68853e-06
-5.13645e-07
1.69038e-06
-2.75386e-07
1.68852e-06
-1.8244e-07
1.68039e-06
6.61121e-08
1.67073e-06
2.74941e-07
1.66823e-06
3.50965e-07
1.67814e-06
6.00304e-07
1.67707e-06
2.03125e-07
1.69032e-06
3.60965e-07
1.67973e-06
4.90124e-08
1.6921e-06
1.68603e-07
3.61759e-08
1.66733e-06
1.78213e-06
3.61226e-07
1.79147e-06
1.38317e-07
1.76889e-06
-4.1392e-07
1.75963e-06
-6.55966e-07
1.7838e-06
6.98397e-07
1.7933e-06
5.11087e-07
1.78958e-06
4.11094e-07
1.78722e-06
-3.6413e-07
1.77095e-06
-4.97379e-07
1.76978e-06
-2.74209e-07
1.76709e-06
-1.79753e-07
1.76057e-06
7.26307e-08
1.75394e-06
2.81569e-07
1.7544e-06
3.50504e-07
1.76668e-06
5.88025e-07
1.76525e-06
2.04555e-07
1.77944e-06
3.46778e-07
1.76681e-06
6.16395e-08
1.77869e-06
1.56723e-07
5.98265e-08
1.75504e-06
1.86773e-06
3.57241e-07
1.87706e-06
1.28985e-07
1.85678e-06
-3.93632e-07
1.84456e-06
-6.43749e-07
1.86623e-06
6.76729e-07
1.8792e-06
4.98116e-07
1.87865e-06
4.11647e-07
1.8741e-06
-3.59581e-07
1.85703e-06
-4.80314e-07
1.85326e-06
-2.70437e-07
1.84979e-06
-1.76286e-07
1.84473e-06
7.76944e-08
1.84127e-06
2.85033e-07
1.84439e-06
3.47379e-07
1.85867e-06
5.73746e-07
1.85623e-06
2.06992e-07
1.87084e-06
3.32168e-07
1.85647e-06
7.60072e-08
1.86729e-06
1.45909e-07
8.15483e-08
1.84557e-06
1.95711e-06
3.52972e-07
1.96612e-06
1.19972e-07
1.94804e-06
-3.75553e-07
1.93441e-06
-6.30118e-07
1.95336e-06
6.57783e-07
1.96806e-06
4.83418e-07
1.97025e-06
4.09457e-07
1.96426e-06
-3.53596e-07
1.9471e-06
-4.63159e-07
1.94122e-06
-2.6455e-07
1.93713e-06
-1.72203e-07
1.93311e-06
8.17206e-08
1.93244e-06
2.85704e-07
1.93752e-06
3.42295e-07
1.95343e-06
5.57837e-07
1.94975e-06
2.10667e-07
1.96444e-06
3.17481e-07
1.94895e-06
9.15011e-08
1.95817e-06
1.36687e-07
1.00595e-07
1.93912e-06
2.05061e-06
3.48551e-07
2.05924e-06
1.11345e-07
2.04295e-06
-3.59263e-07
2.02862e-06
-6.15793e-07
2.04535e-06
6.41055e-07
2.06072e-06
4.68052e-07
2.06515e-06
4.05027e-07
2.05812e-06
-3.46573e-07
2.04134e-06
-4.46379e-07
2.03379e-06
-2.56992e-07
2.02936e-06
-1.67781e-07
2.0259e-06
8.51874e-08
2.02741e-06
2.84188e-07
2.03364e-06
3.36067e-07
2.05082e-06
5.40657e-07
2.04604e-06
2.15451e-07
2.06052e-06
3.03e-07
2.04469e-06
1.07333e-07
2.05189e-06
1.29483e-07
1.16425e-07
2.03606e-06
2.14858e-06
3.43974e-07
2.15683e-06
1.03088e-07
2.14179e-06
-3.44219e-07
2.12703e-06
-6.01031e-07
2.14235e-06
6.25733e-07
2.15781e-06
4.52598e-07
2.16402e-06
3.98816e-07
2.1561e-06
-3.3866e-07
2.13993e-06
-4.30204e-07
2.13101e-06
-2.4807e-07
2.12656e-06
-1.63332e-07
2.12326e-06
8.84863e-08
2.12636e-06
2.8109e-07
2.13305e-06
3.29368e-07
2.15116e-06
5.22549e-07
2.14564e-06
2.20976e-07
2.1596e-06
2.89036e-07
2.14423e-06
1.22703e-07
2.14916e-06
1.2455e-07
1.28822e-07
2.13677e-06
2.25128e-06
3.39178e-07
2.2592e-06
9.51721e-08
2.24489e-06
-3.29913e-07
2.22974e-06
-5.85879e-07
2.2445e-06
6.10978e-07
2.25974e-06
4.37355e-07
2.26737e-06
3.91189e-07
2.25856e-06
-3.2985e-07
2.24307e-06
-4.14721e-07
2.23294e-06
-2.3794e-07
2.22873e-06
-1.5912e-07
2.22536e-06
9.18607e-08
2.22954e-06
2.76912e-07
2.2363e-06
3.22606e-07
2.255e-06
5.03848e-07
2.24921e-06
2.26768e-07
2.26232e-06
2.75928e-07
2.24807e-06
1.36947e-07
2.25076e-06
1.21866e-07
1.37971e-07
2.24161e-06
2.35896e-06
3.34091e-07
2.36655e-06
8.75871e-08
2.35262e-06
-3.15989e-07
2.33703e-06
-5.70285e-07
2.35192e-06
5.96087e-07
2.36679e-06
4.2249e-07
2.37558e-06
3.8239e-07
2.36579e-06
-3.20058e-07
2.35104e-06
-3.99973e-07
2.33976e-06
-2.26654e-07
2.33595e-06
-1.5531e-07
2.33241e-06
9.54019e-08
2.33727e-06
2.72048e-07
2.34397e-06
3.15912e-07
2.36291e-06
4.84901e-07
2.35734e-06
2.32339e-07
2.36928e-06
2.63984e-07
2.35662e-06
1.49607e-07
2.35732e-06
1.21173e-07
1.44359e-07
2.35093e-06
2.47183e-06
3.28654e-07
2.47907e-06
8.03507e-08
2.46535e-06
-3.0227e-07
2.44922e-06
-5.54155e-07
2.46475e-06
5.80554e-07
2.47912e-06
4.08124e-07
2.48897e-06
3.72544e-07
2.47809e-06
-3.09181e-07
2.46411e-06
-3.85996e-07
2.45169e-06
-2.14229e-07
2.44834e-06
-1.51961e-07
2.44468e-06
9.90637e-08
2.44989e-06
2.66836e-07
2.45658e-06
3.09216e-07
2.47542e-06
4.66066e-07
2.47048e-06
2.37282e-07
2.48108e-06
2.53379e-07
2.47017e-06
1.60525e-07
2.46923e-06
1.22108e-07
1.48531e-07
2.46506e-06
2.59012e-06
3.22829e-07
2.59696e-06
7.351e-08
2.58343e-06
-2.88745e-07
2.56665e-06
-5.37371e-07
2.58314e-06
5.6406e-07
2.5969e-06
3.94367e-07
2.60776e-06
3.61682e-07
2.59571e-06
-2.97134e-07
2.58255e-06
-3.72827e-07
2.56902e-06
-2.00702e-07
2.56608e-06
-1.49028e-07
2.56246e-06
1.02686e-07
2.5677e-06
2.61603e-07
2.5746e-06
3.02309e-07
2.59296e-06
4.47708e-07
2.58893e-06
2.4131e-07
2.59822e-06
2.44093e-07
2.58891e-06
1.69834e-07
2.58677e-06
1.24242e-07
1.50984e-07
2.58432e-06
2.71407e-06
3.16589e-07
2.72044e-06
6.71399e-08
2.70721e-06
-2.75518e-07
2.68965e-06
-5.19809e-07
2.70728e-06
5.46428e-07
2.72031e-06
3.81339e-07
2.73221e-06
3.49787e-07
2.71894e-06
-2.83871e-07
2.70661e-06
-3.6049e-07
2.69207e-06
-1.86161e-07
2.6894e-06
-1.46367e-07
2.68607e-06
1.06022e-07
2.691e-06
2.56672e-07
2.69836e-06
2.94951e-07
2.71594e-06
4.30122e-07
2.71292e-06
2.44331e-07
2.72109e-06
2.3592e-07
2.71312e-06
1.77812e-07
2.71015e-06
1.27205e-07
1.52094e-07
2.70904e-06
2.84395e-06
3.09911e-07
2.84975e-06
6.13371e-08
2.83699e-06
-2.62758e-07
2.81853e-06
-5.01347e-07
2.83739e-06
5.27562e-07
2.84958e-06
3.69158e-07
2.86253e-06
3.36828e-07
2.84807e-06
-2.69408e-07
2.83655e-06
-3.48965e-07
2.82115e-06
-1.70763e-07
2.81853e-06
-1.43752e-07
2.81578e-06
1.08773e-07
2.82011e-06
2.52349e-07
2.8281e-06
2.86954e-07
2.84477e-06
4.13451e-07
2.84263e-06
2.46475e-07
2.85002e-06
2.28527e-07
2.84312e-06
1.84716e-07
2.83955e-06
1.30773e-07
1.5211e-07
2.83954e-06
2.98003e-06
3.02777e-07
2.98516e-06
5.62103e-08
2.97306e-06
-2.50659e-07
2.95359e-06
-4.81877e-07
2.97374e-06
5.07407e-07
2.98497e-06
3.57927e-07
2.99899e-06
3.2281e-07
2.9834e-06
-2.5382e-07
2.97261e-06
-3.38174e-07
2.95658e-06
-1.54735e-07
2.95372e-06
-1.40893e-07
2.95187e-06
1.10623e-07
2.95534e-06
2.48878e-07
2.96405e-06
2.78246e-07
2.97985e-06
3.97653e-07
2.97828e-06
2.48044e-07
2.98522e-06
2.21588e-07
2.97932e-06
1.9062e-07
2.97515e-06
1.34939e-07
1.51178e-07
2.97608e-06
3.12262e-06
2.95167e-07
3.12696e-06
5.18674e-08
3.1157e-06
-2.39402e-07
3.09513e-06
-4.61308e-07
3.1166e-06
4.85942e-07
3.12681e-06
3.47713e-07
3.14184e-06
3.07786e-07
3.12526e-06
-2.37246e-07
3.11506e-06
-3.2797e-07
3.0987e-06
-1.38375e-07
3.09525e-06
-1.37446e-07
3.09459e-06
1.11283e-07
3.09707e-06
2.46399e-07
3.1064e-06
2.68914e-07
3.12154e-06
3.82518e-07
3.12017e-06
2.49415e-07
3.12685e-06
2.14903e-07
3.12209e-06
1.95379e-07
3.11721e-06
1.3982e-07
1.49458e-07
3.11893e-06
3.27201e-06
2.87066e-07
3.27547e-06
4.84107e-08
3.26522e-06
-2.29149e-07
3.24349e-06
-4.3958e-07
3.26625e-06
4.63182e-07
3.27543e-06
3.38526e-07
3.29135e-06
2.91869e-07
3.274e-06
-2.19889e-07
3.26416e-06
-3.18137e-07
3.24782e-06
-1.2203e-07
3.24344e-06
-1.33064e-07
3.24418e-06
1.10537e-07
3.24567e-06
2.44914e-07
3.25537e-06
2.59208e-07
3.27017e-06
3.67723e-07
3.26866e-06
2.50923e-07
3.27511e-06
2.08452e-07
3.27175e-06
1.98735e-07
3.26611e-06
1.45467e-07
1.47241e-07
3.26832e-06
3.42854e-06
2.78459e-07
3.43102e-06
4.59323e-08
3.4219e-06
-2.20034e-07
3.39899e-06
-4.16667e-07
3.42298e-06
4.39186e-07
3.4312e-06
3.30315e-07
3.44783e-06
2.75231e-07
3.42996e-06
-2.02021e-07
3.42022e-06
-3.08394e-07
3.40427e-06
-1.06075e-07
3.39863e-06
-1.27432e-07
3.40089e-06
1.08282e-07
3.40152e-06
2.44285e-07
3.41121e-06
2.49513e-07
3.42603e-06
3.52908e-07
3.42419e-06
2.52764e-07
3.43018e-06
2.02458e-07
3.42856e-06
2.00361e-07
3.42226e-06
1.51759e-07
1.44988e-07
3.42452e-06
3.59253e-06
2.69338e-07
3.59396e-06
4.45089e-08
3.58608e-06
-2.12154e-07
3.562e-06
-3.92588e-07
3.58712e-06
4.14063e-07
3.59447e-06
3.22968e-07
3.61159e-06
2.58108e-07
3.59355e-06
-1.83986e-07
3.58357e-06
-2.9841e-07
3.56838e-06
-9.08869e-08
3.56126e-06
-1.20311e-07
3.56498e-06
1.04561e-07
3.56502e-06
2.44244e-07
3.57426e-06
2.40278e-07
3.58937e-06
3.378e-07
3.58725e-06
2.54884e-07
3.59239e-06
1.97318e-07
3.5927e-06
2.00043e-07
3.58614e-06
1.58325e-07
1.43283e-07
3.58784e-06
3.76434e-06
2.59699e-07
3.76466e-06
4.4197e-08
3.75808e-06
-2.05574e-07
3.7329e-06
-3.6741e-07
3.75898e-06
3.87984e-07
3.76564e-06
3.16308e-07
3.78295e-06
2.40796e-07
3.76515e-06
-1.66188e-07
3.75458e-06
-2.87842e-07
3.74049e-06
-7.67889e-08
3.73178e-06
-1.11601e-07
3.73674e-06
9.95944e-08
3.73657e-06
2.44414e-07
3.74489e-06
2.31964e-07
3.76045e-06
3.22235e-07
3.7583e-06
2.57035e-07
3.76219e-06
1.93432e-07
3.76441e-06
1.97823e-07
3.75815e-06
1.64585e-07
1.42698e-07
3.75873e-06
3.94434e-06
2.49544e-07
3.94351e-06
4.50289e-08
3.93826e-06
-2.00319e-07
3.91211e-06
-3.4126e-07
3.9389e-06
3.61186e-07
3.94512e-06
3.10089e-07
3.96225e-06
2.23665e-07
3.94516e-06
-1.49093e-07
3.93367e-06
-2.76351e-07
3.92089e-06
-6.40111e-08
3.91065e-06
-1.01364e-07
3.91651e-06
9.37392e-08
3.91654e-06
2.44387e-07
3.92355e-06
2.24949e-07
3.93958e-06
3.06201e-07
3.93775e-06
2.58866e-07
3.9401e-06
1.91088e-07
3.94393e-06
1.93992e-07
3.93863e-06
1.69889e-07
1.43597e-07
3.93773e-06
4.13292e-06
2.38879e-07
4.13093e-06
4.70107e-08
4.12698e-06
-1.96364e-07
4.10005e-06
-3.14333e-07
4.12726e-06
3.33978e-07
4.13335e-06
3.04002e-07
4.14987e-06
2.07143e-07
4.13395e-06
-1.33178e-07
4.12129e-06
-2.63685e-07
4.10991e-06
-5.26347e-08
4.09836e-06
-8.98153e-08
4.10468e-06
8.74244e-08
4.10526e-06
2.43809e-07
4.11076e-06
2.19443e-07
4.12709e-06
2.89877e-07
4.12598e-06
2.59968e-07
4.12667e-06
1.90403e-07
4.13161e-06
1.89053e-07
4.12785e-06
1.73643e-07
1.45996e-07
4.12545e-06
4.33046e-06
2.27722e-07
4.32735e-06
5.01173e-08
4.32462e-06
-1.93625e-07
4.29719e-06
-2.86904e-07
4.32443e-06
3.06739e-07
4.33076e-06
2.97671e-07
4.34619e-06
1.91709e-07
4.33191e-06
-1.18893e-07
4.31795e-06
-2.49726e-07
4.30787e-06
-4.25537e-08
4.29533e-06
-7.72841e-08
4.30172e-06
8.10393e-08
4.30307e-06
2.4246e-07
4.30703e-06
2.15477e-07
4.32333e-06
2.73585e-07
4.32335e-06
2.59943e-07
4.32246e-06
1.91293e-07
4.32784e-06
1.83673e-07
4.32607e-06
1.75418e-07
1.49495e-07
4.32257e-06
4.5374e-06
2.16099e-07
4.53323e-06
5.42862e-08
4.53155e-06
-1.91947e-07
4.50397e-06
-2.59328e-07
4.53081e-06
2.79905e-07
4.5378e-06
2.90682e-07
4.55166e-06
1.77843e-07
4.53934e-06
-1.06574e-07
4.52418e-06
-2.34562e-07
4.51513e-06
-3.35072e-08
4.50198e-06
-6.41337e-08
4.50811e-06
7.49144e-08
4.51035e-06
2.40219e-07
4.51287e-06
2.12954e-07
4.52871e-06
2.57745e-07
4.53021e-06
2.5845e-07
4.52804e-06
1.9346e-07
4.53313e-06
1.78578e-07
4.53349e-06
1.75056e-07
1.53328e-07
4.52966e-06
4.75416e-06
2.04055e-07
4.74903e-06
5.94113e-08
4.74818e-06
-1.91093e-07
4.7209e-06
-2.3205e-07
4.74682e-06
2.53986e-07
4.75493e-06
2.82572e-07
4.76679e-06
1.65986e-07
4.7565e-06
-9.62875e-08
4.74052e-06
-2.18586e-07
4.73216e-06
-2.51456e-08
4.71871e-06
-5.06858e-08
4.72433e-06
6.93029e-08
4.72752e-06
2.37025e-07
4.72871e-06
2.11767e-07
4.74377e-06
2.4268e-07
4.74691e-06
2.55311e-07
4.74385e-06
1.96525e-07
4.74813e-06
1.7429e-07
4.75041e-06
1.72783e-07
1.56594e-07
4.74714e-06
4.9812e-06
1.91652e-07
4.97527e-06
6.53387e-08
4.97492e-06
-1.90742e-07
4.94846e-06
-2.05587e-07
4.9729e-06
2.29546e-07
4.98262e-06
2.72853e-07
4.99215e-06
1.56451e-07
4.98363e-06
-8.77589e-08
4.96744e-06
-2.02402e-07
4.95948e-06
-1.71816e-08
4.94595e-06
-3.71527e-08
4.95086e-06
6.43845e-08
4.95503e-06
2.32861e-07
4.955e-06
2.11798e-07
4.96902e-06
2.28656e-07
4.97382e-06
2.50508e-07
4.97036e-06
1.99988e-07
4.97352e-06
1.71126e-07
4.97716e-06
1.6915e-07
1.58516e-07
4.97524e-06
5.219e-06
1.78973e-07
5.21248e-06
7.18556e-08
5.21221e-06
-1.9047e-07
5.18715e-06
-1.80532e-07
5.20953e-06
2.07171e-07
5.22132e-06
2.6106e-07
5.22852e-06
1.49251e-07
5.22116e-06
-8.04018e-08
5.20538e-06
-1.86617e-07
5.19764e-06
-9.44406e-09
5.18412e-06
-2.36297e-08
5.18822e-06
6.02804e-08
5.19332e-06
2.27761e-07
5.19224e-06
2.12878e-07
5.20489e-06
2.16001e-07
5.21141e-06
2.43989e-07
5.20801e-06
2.03392e-07
5.20997e-06
1.69168e-07
5.21426e-06
1.64857e-07
1.58672e-07
5.2141e-06
5.46804e-06
1.66124e-07
5.4612e-06
7.86947e-08
5.46047e-06
-1.89742e-07
5.43747e-06
-1.57533e-07
5.45723e-06
1.87415e-07
5.47139e-06
2.46899e-07
5.47672e-06
1.43917e-07
5.46974e-06
-7.34171e-08
5.45474e-06
-1.71622e-07
5.44721e-06
-1.91306e-09
5.43369e-06
-1.01036e-08
5.4369e-06
5.70684e-08
5.44281e-06
2.21852e-07
5.44095e-06
2.14732e-07
5.45195e-06
2.05005e-07
5.46012e-06
2.35815e-07
5.45726e-06
2.06258e-07
5.45803e-06
1.6839e-07
5.46242e-06
1.60468e-07
1.57148e-07
5.46395e-06
5.72885e-06
1.53233e-07
5.722e-06
8.55426e-08
5.72013e-06
-1.87872e-07
5.69991e-06
-1.37316e-07
5.71671e-06
1.70614e-07
5.73305e-06
2.30567e-07
5.73736e-06
1.39605e-07
5.73012e-06
-6.61782e-08
5.71602e-06
-1.57521e-07
5.70874e-06
5.36929e-09
5.69515e-06
3.487e-09
5.69733e-06
5.48894e-08
5.70393e-06
2.15247e-07
5.70166e-06
2.17008e-07
5.71081e-06
1.95851e-07
5.72046e-06
2.26161e-07
5.71857e-06
2.08155e-07
5.71829e-06
1.68664e-07
5.7224e-06
1.5636e-07
1.54371e-07
5.72518e-06
6.00199e-06
1.40437e-07
5.99548e-06
9.20554e-08
5.99149e-06
-1.83891e-07
5.97495e-06
-1.20776e-07
5.98896e-06
1.56605e-07
6.00658e-06
2.1295e-07
6.01078e-06
1.35407e-07
6.00301e-06
-5.84152e-08
5.98961e-06
-1.44121e-07
5.98259e-06
1.2392e-08
5.96885e-06
1.72323e-08
5.96983e-06
5.39025e-08
5.97716e-06
2.07924e-07
5.97494e-06
2.19228e-07
5.98213e-06
1.88652e-07
5.99297e-06
2.15329e-07
5.99246e-06
2.08663e-07
5.99128e-06
1.69837e-07
5.9949e-06
1.52749e-07
1.50815e-07
5.99845e-06
6.28804e-06
1.27884e-07
6.28222e-06
9.78755e-08
6.27538e-06
-1.77052e-07
6.26294e-06
-1.08331e-07
6.27489e-06
1.4465e-07
6.29263e-06
1.95216e-07
6.29718e-06
1.30858e-07
6.28873e-06
-4.99671e-08
6.27549e-06
-1.30886e-07
6.26861e-06
1.9276e-08
6.25493e-06
3.09102e-08
6.25479e-06
5.40439e-08
6.26306e-06
1.99656e-07
6.26142e-06
2.20869e-07
6.26664e-06
1.83426e-07
6.27821e-06
2.03767e-07
6.27945e-06
2.0742e-07
6.27763e-06
1.7166e-07
6.28054e-06
1.49837e-07
1.46825e-07
6.28453e-06
6.58765e-06
1.15706e-07
6.58286e-06
1.02666e-07
6.57359e-06
-1.67781e-07
6.56422e-06
-9.89653e-08
6.5751e-06
1.33774e-07
6.59208e-06
1.78231e-07
6.59666e-06
1.26276e-07
6.58696e-06
-4.02639e-08
6.57352e-06
-1.17446e-07
6.56709e-06
2.57051e-08
6.55403e-06
4.39745e-08
6.55294e-06
5.51247e-08
6.56231e-06
1.90293e-07
6.56178e-06
2.21398e-07
6.56513e-06
1.80079e-07
6.57674e-06
1.92157e-07
6.58005e-06
2.04103e-07
6.57795e-06
1.73768e-07
6.57995e-06
1.47829e-07
1.42629e-07
6.58415e-06
6.90147e-06
1.04025e-07
6.89807e-06
1.06064e-07
6.88694e-06
-1.56644e-07
6.8795e-06
-9.15296e-08
6.88988e-06
1.23396e-07
6.90596e-06
1.62153e-07
6.91002e-06
1.22215e-07
6.89891e-06
-2.91566e-08
6.88565e-06
-1.04188e-07
6.87993e-06
3.14265e-08
6.86757e-06
5.63351e-08
6.86537e-06
5.73265e-08
6.87564e-06
1.80024e-07
6.87659e-06
2.20442e-07
6.87833e-06
1.78341e-07
6.88928e-06
1.81212e-07
6.89473e-06
1.98647e-07
6.89289e-06
1.75607e-07
6.89384e-06
1.4688e-07
1.38473e-07
6.898e-06
7.23021e-06
9.29472e-08
7.2287e-06
1.0758e-07
7.21592e-06
-1.4387e-07
7.20968e-06
-8.52815e-08
7.21967e-06
1.13402e-07
7.23501e-06
1.46814e-07
7.23877e-06
1.18452e-07
7.22677e-06
-1.71566e-08
7.21328e-06
-9.06957e-08
7.20821e-06
3.64985e-08
7.19658e-06
6.79646e-08
7.19308e-06
6.08233e-08
7.2038e-06
1.6931e-07
7.20647e-06
2.1777e-07
7.20697e-06
1.77841e-07
7.21667e-06
1.71513e-07
7.22399e-06
1.91325e-07
7.22305e-06
1.76548e-07
7.22299e-06
1.4694e-07
1.34704e-07
7.22676e-06
7.57461e-06
8.25637e-08
7.57545e-06
1.06743e-07
7.56127e-06
-1.29699e-07
7.55574e-06
-7.97464e-08
7.56508e-06
1.04062e-07
7.58001e-06
1.31881e-07
7.58406e-06
1.14409e-07
7.57136e-06
-4.45763e-09
7.55708e-06
-7.64187e-08
7.55233e-06
4.12442e-08
7.5417e-06
7.8596e-08
7.53701e-06
6.55204e-08
7.54758e-06
1.58735e-07
7.55201e-06
2.13342e-07
7.55177e-06
1.7808e-07
7.55979e-06
1.63495e-07
7.56847e-06
1.82638e-07
7.56896e-06
1.76066e-07
7.56821e-06
1.47689e-07
1.31689e-07
7.57122e-06
7.93544e-06
7.29338e-08
7.93852e-06
1.03668e-07
7.92401e-06
-1.15192e-07
7.9186e-06
-7.43365e-08
7.92726e-06
9.53978e-08
7.94155e-06
1.17596e-07
7.94741e-06
1.08548e-07
7.93414e-06
8.81587e-09
7.9176e-06
-5.98793e-08
7.91287e-06
4.59726e-08
7.90359e-06
8.78787e-08
7.898e-06
7.11075e-08
7.90784e-06
1.48893e-07
7.91389e-06
2.07293e-07
7.91344e-06
1.78532e-07
7.9196e-06
1.57331e-07
7.92897e-06
1.73272e-07
7.93118e-06
1.73858e-07
7.93026e-06
1.48601e-07
1.29641e-07
7.93231e-06
8.31351e-06
6.41089e-08
8.31825e-06
9.89288e-08
8.30474e-06
-1.01685e-07
8.29926e-06
-6.88567e-08
8.30724e-06
8.74149e-08
8.3199e-06
1.0494e-07
8.32764e-06
1.00802e-07
8.31344e-06
2.30177e-08
8.29494e-06
-4.13807e-08
8.29064e-06
5.028e-08
8.28293e-06
9.55798e-08
8.27675e-06
7.7295e-08
8.28547e-06
1.40171e-07
8.29282e-06
1.9994e-07
8.29269e-06
1.7866e-07
8.29705e-06
1.52975e-07
8.30643e-06
1.63892e-07
8.31037e-06
1.69913e-07
8.30984e-06
1.49141e-07
1.2848e-07
8.311e-06
8.70962e-06
5.61474e-08
8.71592e-06
9.26293e-08
8.70273e-06
-8.84881e-08
8.69765e-06
-6.37807e-08
8.70482e-06
8.02491e-08
8.71384e-06
9.59149e-08
8.71681e-06
9.78325e-08
8.70485e-06
3.49799e-08
8.68972e-06
-2.62516e-08
8.68666e-06
5.33365e-08
8.68052e-06
1.01719e-07
8.67401e-06
8.38121e-08
8.68137e-06
1.3281e-07
8.68966e-06
1.91643e-07
8.69027e-06
1.78057e-07
8.69305e-06
1.5019e-07
8.70185e-06
1.55097e-07
8.70733e-06
1.64432e-07
8.70758e-06
1.48893e-07
1.27889e-07
8.70817e-06
9.12468e-06
4.9083e-08
9.13254e-06
8.4774e-08
9.11875e-06
-7.46993e-08
9.11199e-06
-5.70183e-08
9.11336e-06
7.88729e-08
9.11797e-06
9.13062e-08
9.12421e-06
9.1596e-08
9.11766e-06
4.15242e-08
9.10431e-06
-1.28997e-08
9.10173e-06
5.59149e-08
9.09708e-06
1.06377e-07
9.09051e-06
9.03739e-08
9.09643e-06
1.26894e-07
9.10535e-06
1.82727e-07
9.10694e-06
1.76465e-07
9.10856e-06
1.48565e-07
9.11629e-06
1.47371e-07
9.12294e-06
1.57785e-07
9.12425e-06
1.47577e-07
1.2751e-07
9.12463e-06
9.55962e-06
4.29228e-08
9.5682e-06
7.61926e-08
9.55426e-06
-6.0754e-08
9.54655e-06
-4.93132e-08
9.54955e-06
7.58744e-08
9.5528e-06
8.80561e-08
9.55759e-06
8.68096e-08
9.55191e-06
4.71981e-08
9.53932e-06
-3.12313e-10
9.53674e-06
5.84951e-08
9.53346e-06
1.09664e-07
9.52717e-06
9.66598e-08
9.53169e-06
1.22373e-07
9.54079e-06
1.73633e-07
9.54346e-06
1.73787e-07
9.54442e-06
1.4761e-07
9.55077e-06
1.41018e-07
9.5581e-06
1.5046e-07
9.56064e-06
1.45037e-07
1.27002e-07
9.56115e-06
1.00154e-05
3.7659e-08
1.0024e-05
6.76101e-08
1.0011e-05
-4.77636e-08
1.00033e-05
-4.16506e-08
1.00068e-05
7.24393e-08
1.00089e-05
8.59194e-08
1.00122e-05
8.35235e-08
1.00072e-05
5.21626e-08
9.99545e-06
1.14558e-08
9.99266e-06
6.12838e-08
9.99054e-06
1.11791e-07
9.98482e-06
1.02382e-07
9.98807e-06
1.19118e-07
9.99702e-06
1.64681e-07
1.00008e-05
1.70053e-07
1.00015e-05
1.46823e-07
1.00065e-05
1.36086e-07
1.00139e-05
1.43024e-07
1.00177e-05
1.41284e-07
1.26082e-07
1.00186e-05
1.0493e-05
3.32514e-08
1.05016e-05
5.90835e-08
1.04897e-05
-3.5909e-08
1.04821e-05
-3.40346e-08
1.04856e-05
6.89409e-08
1.04871e-05
8.44571e-08
1.04889e-05
8.16578e-08
1.04843e-05
5.67588e-08
1.04735e-05
2.22869e-08
1.04706e-05
6.41889e-08
1.04694e-05
1.12967e-07
1.04645e-05
1.0735e-07
1.04666e-05
1.16971e-07
1.04751e-05
1.5615e-07
1.04798e-05
1.6539e-07
1.04808e-05
1.45837e-07
1.04845e-05
1.3239e-07
1.04915e-05
1.36001e-07
1.04963e-05
1.36517e-07
1.24519e-07
1.04978e-05
1.09936e-05
2.96346e-08
1.10019e-05
5.07924e-08
1.09914e-05
-2.53616e-08
1.09835e-05
-2.61395e-08
1.0987e-05
6.54501e-08
1.09882e-05
8.32768e-08
1.09888e-05
8.09651e-08
1.09844e-05
6.11876e-08
1.09745e-05
3.2173e-08
1.09716e-05
6.71292e-08
1.09712e-05
1.13384e-07
1.0967e-05
1.11509e-07
1.09683e-05
1.15715e-07
1.09762e-05
1.48256e-07
1.09816e-05
1.59963e-07
1.09831e-05
1.44373e-07
1.09859e-05
1.29586e-07
1.09921e-05
1.29731e-07
1.09976e-05
1.31087e-07
1.22163e-07
1.09999e-05
1.15183e-05
2.67212e-08
1.15261e-05
4.29312e-08
1.15168e-05
-1.60508e-08
1.15084e-05
-1.77531e-08
1.15118e-05
6.2083e-08
1.15132e-05
8.19044e-08
1.1513e-05
8.11224e-08
1.15087e-05
6.55521e-08
1.14996e-05
4.12394e-08
1.14966e-05
7.00755e-08
1.14969e-05
1.13153e-07
1.14936e-05
1.14761e-07
1.14942e-05
1.15124e-07
1.15013e-05
1.4113e-07
1.15073e-05
1.54019e-07
1.15094e-05
1.42274e-07
1.15116e-05
1.27326e-07
1.1517e-05
1.24363e-07
1.15227e-05
1.25399e-07
1.19031e-07
1.15258e-05
1.20681e-05
2.44182e-08
1.20752e-05
3.58598e-08
1.2067e-05
-7.88498e-09
1.20582e-05
-8.92965e-09
1.20613e-05
5.90319e-08
1.20632e-05
8.00049e-08
1.20626e-05
8.17095e-08
1.20582e-05
6.99078e-08
1.20499e-05
4.96036e-08
1.20469e-05
7.29931e-08
1.20477e-05
1.12373e-07
1.20454e-05
1.17063e-07
1.20456e-05
1.14975e-07
1.20518e-05
1.3486e-07
1.2058e-05
1.47817e-07
1.20608e-05
1.39507e-07
1.20629e-05
1.25265e-07
1.20674e-05
1.19861e-07
1.2073e-05
1.19789e-07
1.1525e-07
1.20768e-05
1.26444e-05
2.26254e-08
1.26502e-05
3.00871e-08
1.2643e-05
-7.13577e-10
1.26342e-05
-1.50586e-10
1.26367e-05
5.65141e-08
1.26392e-05
7.75437e-08
1.26386e-05
8.22715e-08
1.26343e-05
7.42073e-08
1.26266e-05
5.735e-08
1.26237e-05
7.58884e-08
1.26249e-05
1.11204e-07
1.26235e-05
1.18413e-07
1.26234e-05
1.15053e-07
1.26288e-05
1.29435e-07
1.26351e-05
1.41559e-07
1.26385e-05
1.36112e-07
1.26406e-05
1.23122e-07
1.26444e-05
1.16069e-07
1.26497e-05
1.14525e-07
1.11017e-07
1.26539e-05
1.32483e-05
2.12342e-08
1.32523e-05
2.60821e-08
1.32464e-05
5.17202e-09
1.32382e-05
8.13667e-09
1.32398e-05
5.49155e-08
1.32425e-05
7.47618e-08
1.32423e-05
8.24759e-08
1.32382e-05
7.83044e-08
1.32311e-05
6.45316e-08
1.32282e-05
7.87857e-08
1.32296e-05
1.09785e-07
1.32291e-05
1.1885e-07
1.32291e-05
1.15125e-07
1.32337e-05
1.24809e-07
1.32398e-05
1.35423e-07
1.32437e-05
1.32197e-07
1.32461e-05
1.20744e-07
1.32494e-05
1.12775e-07
1.32542e-05
1.09757e-07
1.06546e-07
1.32587e-05
1.38813e-05
2.01216e-08
1.3884e-05
2.34076e-08
1.38791e-05
9.98294e-09
1.38715e-05
1.57482e-08
1.3872e-05
5.44764e-08
1.38746e-05
7.21181e-08
1.38749e-05
8.2227e-08
1.38712e-05
8.19357e-08
1.38646e-05
7.11422e-08
1.38617e-05
8.17335e-08
1.38632e-05
1.08212e-07
1.38636e-05
1.18451e-07
1.38638e-05
1.15005e-07
1.38677e-05
1.20876e-07
1.38735e-05
1.29587e-07
1.38778e-05
1.27908e-07
1.38805e-05
1.18052e-07
1.38835e-05
1.09746e-07
1.38878e-05
1.05479e-07
1.02046e-07
1.38923e-05
1.45446e-05
1.92111e-08
1.4546e-05
2.20061e-08
1.45422e-05
1.37976e-08
1.45355e-05
2.23864e-08
1.45349e-05
5.51139e-08
1.45369e-05
7.00953e-08
1.45375e-05
8.16094e-08
1.45346e-05
8.4859e-08
1.45286e-05
7.70957e-08
1.45257e-05
8.47103e-08
1.45272e-05
1.06639e-07
1.45283e-05
1.17355e-07
1.45288e-05
1.1456e-07
1.45322e-05
1.17494e-07
1.45376e-05
1.24123e-07
1.45421e-05
1.23398e-07
1.45452e-05
1.15005e-07
1.45481e-05
1.06797e-07
1.4552e-05
1.01619e-07
9.77007e-08
1.45563e-05
1.52396e-05
1.84449e-08
1.52402e-05
2.14352e-08
1.5237e-05
1.70195e-08
1.52314e-05
2.7984e-08
1.52299e-05
5.65822e-08
1.5231e-05
6.89985e-08
1.52318e-05
8.08056e-08
1.52297e-05
8.70025e-08
1.52245e-05
8.22536e-08
1.52216e-05
8.76085e-08
1.5223e-05
1.05229e-07
1.52247e-05
1.15707e-07
1.52255e-05
1.13702e-07
1.52285e-05
1.14513e-07
1.52336e-05
1.19027e-07
1.52382e-05
1.18794e-07
1.52416e-05
1.11654e-07
1.52446e-05
1.03789e-07
1.52481e-05
9.80772e-08
9.36134e-08
1.52522e-05
1.5968e-05
1.78042e-08
1.5968e-05
2.14153e-08
1.59651e-05
1.99383e-08
1.59605e-05
3.25691e-08
1.59585e-05
5.8533e-08
1.59586e-05
6.88957e-08
1.59593e-05
8.00965e-08
1.59579e-05
8.84059e-08
1.59537e-05
8.64892e-08
1.5951e-05
9.031e-08
1.59522e-05
1.04033e-07
1.59542e-05
1.13673e-07
1.59555e-05
1.12392e-07
1.59583e-05
1.11792e-07
1.5963e-05
1.14321e-07
1.59676e-05
1.14154e-07
1.59712e-05
1.08099e-07
1.59743e-05
1.00638e-07
1.59777e-05
9.47045e-08
8.98127e-08
1.59815e-05
1.67311e-05
1.72974e-08
1.67306e-05
2.18971e-08
1.67279e-05
2.26841e-08
1.67242e-05
3.62108e-08
1.67222e-05
6.05981e-08
1.67214e-05
6.96576e-08
1.67217e-05
7.97634e-08
1.6721e-05
8.91813e-08
1.67177e-05
8.97315e-08
1.67153e-05
9.27221e-08
1.67163e-05
1.03003e-07
1.67186e-05
1.11414e-07
1.67203e-05
1.1067e-07
1.6723e-05
1.09166e-07
1.67273e-05
1.1001e-07
1.67319e-05
1.09532e-07
1.67356e-05
1.04382e-07
1.67389e-05
9.73737e-08
1.67422e-05
9.13436e-08
8.62725e-08
1.67458e-05
1.75307e-05
1.69334e-08
1.753e-05
2.25772e-08
1.75272e-05
2.54805e-08
1.75243e-05
3.91685e-08
1.75224e-05
6.25069e-08
1.7521e-05
7.10394e-08
1.75208e-05
7.99563e-08
1.75204e-05
8.95382e-08
1.75182e-05
9.20147e-08
1.75162e-05
9.46883e-08
1.75171e-05
1.02109e-07
1.75195e-05
1.09039e-07
1.75215e-05
1.08611e-07
1.75242e-05
1.06531e-07
1.75282e-05
1.06008e-07
1.75327e-05
1.05026e-07
1.75366e-05
1.00491e-07
1.75399e-05
9.40514e-08
1.75433e-05
8.79325e-08
8.2881e-08
1.75467e-05
1.83686e-05
1.67232e-08
1.83677e-05
2.33975e-08
1.83649e-05
2.83229e-08
1.83624e-05
4.16676e-08
1.83608e-05
6.41294e-08
1.83591e-05
7.27553e-08
1.83584e-05
8.06436e-08
1.83582e-05
8.97262e-08
1.83567e-05
9.3475e-08
1.83553e-05
9.60613e-08
1.83562e-05
1.01298e-07
1.83586e-05
1.0663e-07
1.83609e-05
1.06255e-07
1.83636e-05
1.03873e-07
1.83674e-05
1.02202e-07
1.83717e-05
1.00684e-07
1.83757e-05
9.64715e-08
1.83792e-05
9.06285e-08
1.83826e-05
8.45168e-08
7.94978e-08
1.8386e-05
1.92464e-05
1.66637e-08
1.92456e-05
2.42953e-08
1.92427e-05
3.11784e-08
1.92404e-05
4.39326e-08
1.92391e-05
6.54589e-08
1.92373e-05
7.453e-08
1.92363e-05
8.17036e-08
1.92361e-05
8.99333e-08
1.92352e-05
9.42901e-08
1.92345e-05
9.68231e-08