/*--------------------------------*- C++ -*----------------------------------*\
| =========                 |                                                 |
| \\      /  F ield         | OpenFOAM: The Open Source CFD Toolbox           |
|  \\    /   O peration     | Version:  2506                                  |
|   \\  /    A nd           | Website:  www.openfoam.com                      |
|    \\/     M anipulation  |                                                 |
\*---------------------------------------------------------------------------*/
FoamFile
{
    version     2.0;
    format      ascii;
    arch        "LSB;label=32;scalar=64";
    class       volVectorField;
    location    "2.85";
    object      U;
}
// * * * * * * * * * * * * * * * * * * * * * * * * * * * * * * * * * * * * * //

dimensions      [0 1 -1 0 0 0 0];

internalField   nonuniform List<vector> 
9600
(
(0.868484 0.00434781 0)
(1.15378 -0.000627178 0)
(0.788784 -0.00591669 0)
(1.15336 -0.00372764 0)
(0.948638 0.00997641 0)
(1.08905 0.00135992 0)
(0.794187 0.00808489 0)
(1.15008 -0.00613025 0)
(0.784342 -0.011117 0)
(1.13999 -0.00146262 0)
(0.875039 -0.00614507 0)
(1.09044 0.00171249 0)
(0.907715 0.00576167 0)
(1.08189 0.00855046 0)
(0.885926 0.0187262 0)
(1.06286 0.00457726 0)
(0.85445 0.0149645 0)
(1.05643 -0.000168171 0)
(0.828091 0.00961039 0)
(1.05927 -0.00794537 0)
(0.875282 0.00411205 0)
(1.1423 0.000204167 0)
(0.803483 -0.00609309 0)
(1.14083 -0.00506164 0)
(0.954243 0.0100793 0)
(1.07915 0.00351497 0)
(0.812354 0.0072654 0)
(1.12498 -0.00573661 0)
(0.812266 -0.0113107 0)
(1.1164 -0.0025953 0)
(0.899257 -0.00571473 0)
(1.0717 0.00147582 0)
(0.931097 0.00560825 0)
(1.05662 0.00906809 0)
(0.92193 0.0188203 0)
(1.01885 0.00550704 0)
(0.912577 0.0150391 0)
(0.985715 0.000400251 0)
(0.923239 0.0106677 0)
(0.951589 -0.00899072 0)
(0.888936 0.00392992 0)
(1.12252 0.000829233 0)
(0.831908 -0.00632031 0)
(1.11581 -0.00608412 0)
(0.965522 0.0106433 0)
(1.06324 0.00486171 0)
(0.845509 0.00653898 0)
(1.08992 -0.00552411 0)
(0.860261 -0.011499 0)
(1.07634 -0.0034781 0)
(0.937082 -0.00515018 0)
(1.03961 0.00100759 0)
(0.961383 0.00577202 0)
(1.02337 0.00942306 0)
(0.956658 0.019486 0)
(0.98885 0.00594063 0)
(0.947489 0.0153819 0)
(0.966572 0.000430948 0)
(0.953662 0.0100973 0)
(0.955882 -0.00580835 0)
(0.907595 0.00381845 0)
(1.09793 0.00129706 0)
(0.869772 -0.00639589 0)
(1.08267 -0.00693736 0)
(0.978875 0.011022 0)
(1.04639 0.00598071 0)
(0.88563 0.00622752 0)
(1.05467 -0.00563229 0)
(0.911594 -0.0114532 0)
(1.03595 -0.0043022 0)
(0.970916 -0.00473244 0)
(1.01267 0.000689279 0)
(0.979051 0.00604065 0)
(1.00024 0.00960379 0)
(0.971597 0.0200681 0)
(0.978958 0.00624623 0)
(0.959803 0.015739 0)
(0.967476 0.000382303 0)
(0.962707 0.0103498 0)
(0.964997 -0.00457508 0)
(0.928359 0.00375102 0)
(1.07263 0.00161221 0)
(0.909491 -0.0063322 0)
(1.04871 -0.00766939 0)
(0.989883 0.0111835 0)
(1.03284 0.00688435 0)
(0.923716 0.00616619 0)
(1.02796 -0.00591923 0)
(0.951566 -0.0112661 0)
(1.00849 -0.00498334 0)
(0.991156 -0.00448661 0)
(0.999141 0.000669972 0)
(0.984262 0.00626129 0)
(0.987693 0.00980897 0)
(0.974665 0.0203618 0)
(0.977268 0.00664151 0)
(0.965329 0.015748 0)
(0.971547 0.000581232 0)
(0.968768 0.010184 0)
(0.971291 -0.00360026 0)
(0.948168 0.00371875 0)
(1.05048 0.00177237 0)
(0.944061 -0.0061612 0)
(1.02069 -0.00821184 0)
(0.995903 0.0111942 0)
(1.02433 0.00751837 0)
(0.954032 0.00626161 0)
(1.01312 -0.00623065 0)
(0.97603 -0.0110497 0)
(0.995749 -0.00544024 0)
(0.999557 -0.00438067 0)
(0.9949 0.000851129 0)
(0.984763 0.00653292 0)
(0.981506 0.0100537 0)
(0.974904 0.0204741 0)
(0.978799 0.00694704 0)
(0.970538 0.0155614 0)
(0.977077 0.000824123 0)
(0.975185 0.00970865 0)
(0.977423 -0.00245709 0)
(0.964729 0.00370703 0)
(1.03379 0.0018035 0)
(0.969794 -0.00591206 0)
(1.00201 -0.00853432 0)
(0.997083 0.0110424 0)
(1.01981 0.00789359 0)
(0.975371 0.00643707 0)
(1.00787 -0.00647441 0)
(0.988496 -0.01083 0)
(0.992036 -0.00571034 0)
(1.00152 -0.00435132 0)
(0.993862 0.0011123 0)
(0.98485 0.00687538 0)
(0.97944 0.0102882 0)
(0.976189 0.0204243 0)
(0.982102 0.0071187 0)
(0.9766 0.0152602 0)
(0.983248 0.00110462 0)
(0.981901 0.00916308 0)
(0.983367 -0.00122492 0)
(0.977067 0.00369737 0)
(1.02273 0.00175401 0)
(0.986522 -0.00562282 0)
(0.992253 -0.00866793 0)
(0.995524 0.0107488 0)
(1.01705 0.0080556 0)
(0.989294 0.00662094 0)
(1.00783 -0.00661836 0)
(0.994185 -0.0105882 0)
(0.991667 -0.00586272 0)
(1.00087 -0.00433269 0)
(0.993116 0.00137472 0)
(0.985324 0.00722434 0)
(0.980114 0.0104763 0)
(0.979288 0.0202401 0)
(0.986369 0.00720055 0)
(0.982995 0.0148489 0)
(0.989138 0.00143811 0)
(0.988193 0.00859252 0)
(0.988658 1.38044e-05 0)
(0.985435 0.00367842 0)
(1.01598 0.00166817 0)
(0.996186 -0.00532833 0)
(0.988765 -0.00866318 0)
(0.993518 0.0103866 0)
(1.01446 0.00805257 0)
(0.997995 0.00676613 0)
(1.00946 -0.00666836 0)
(0.996825 -0.0103104 0)
(0.991934 -0.00593347 0)
(0.999402 -0.0042987 0)
(0.992111 0.00160217 0)
(0.986052 0.00753057 0)
(0.982291 0.0105927 0)
(0.983628 0.0199546 0)
(0.990974 0.00724642 0)
(0.989018 0.014347 0)
(0.9942 0.00185256 0)
(0.993471 0.00801237 0)
(0.993015 0.0012549 0)
(0.990767 0.00364851 0)
(1.01185 0.00156709 0)
(1.00124 -0.00504984 0)
(0.988655 -0.0085688 0)
(0.992326 0.0100209 0)
(1.01161 0.00793679 0)
(1.00325 0.00685572 0)
(1.01092 -0.00664837 0)
(0.998252 -0.00999808 0)
(0.992236 -0.00593611 0)
(0.997872 -0.00424661 0)
(0.99104 0.00178792 0)
(0.986904 0.00776375 0)
(0.985024 0.0106169 0)
(0.988276 0.0195848 0)
(0.995311 0.00729592 0)
(0.994145 0.0137918 0)
(0.998188 0.00234914 0)
(0.997489 0.00744408 0)
(0.996316 0.00248312 0)
(0.994083 0.00361073 0)
(1.00914 0.00146161 0)
(1.0037 -0.00479678 0)
(0.98988 -0.0084243 0)
(0.992099 0.00968766 0)
(1.00873 0.00775265 0)
(1.00627 0.0068889 0)
(1.01169 -0.00658207 0)
(0.999137 -0.00966433 0)
(0.992615 -0.00587967 0)
(0.996672 -0.00417543 0)
(0.990145 0.00193331 0)
(0.987773 0.00790389 0)
(0.987669 0.0105527 0)
(0.992426 0.0191415 0)
(0.998872 0.00737071 0)
(0.998066 0.0132162 0)
(1.00104 0.00293153 0)
(1.00027 0.00691623 0)
(0.9986 0.00362862 0)
(0.996153 0.00356873 0)
(1.00724 0.00135949 0)
(1.00482 -0.00457073 0)
(0.991347 -0.00825502 0)
(0.992457 0.00939839 0)
(1.00619 0.00753276 0)
(1.00785 0.00687179 0)
(1.01188 -0.00648573 0)
(0.999684 -0.00932432 0)
(0.993078 -0.00577388 0)
(0.995942 -0.00408492 0)
(0.989559 0.00204409 0)
(0.988572 0.00795431 0)
(0.989857 0.0104233 0)
(0.995607 0.0186331 0)
(1.00141 0.0074842 0)
(1.00073 0.0126362 0)
(1.00286 0.0035819 0)
(1.00204 0.00645289 0)
(1.00003 0.00464983 0)
(0.997458 0.00352496 0)
(1.0059 0.00126235 0)
(1.00531 -0.00436828 0)
(0.992592 -0.00807332 0)
(0.993011 0.00914808 0)
(1.00421 0.00729903 0)
(1.00856 0.00681398 0)
(1.01173 -0.00636902 0)
(0.99999 -0.00898808 0)
(0.99354 -0.00562749 0)
(0.995638 -0.00398165 0)
(0.989295 0.00213236 0)
(0.989252 0.00793598 0)
(0.991472 0.0102508 0)
(0.997725 0.0180728 0)
(1.00297 0.00764198 0)
(1.00231 0.0120588 0)
(1.00384 0.00425603 0)
(1.00306 0.00607588 0)
(1.00085 0.00551707 0)
(0.998274 0.00347994 0)
(1.00499 0.00116977 0)
(1.00549 -0.00418347 0)
(0.993483 -0.00788455 0)
(0.993551 0.00892563 0)
(1.00285 0.0070613 0)
(1.0088 0.00672321 0)
(1.01144 -0.00623511 0)
(1.00014 -0.00866221 0)
(0.993917 -0.00544713 0)
(0.995625 -0.00387716 0)
(0.989283 0.00221544 0)
(0.989805 0.00786357 0)
(0.99258 0.0100572 0)
(0.998958 0.0174786 0)
(1.00376 0.00783461 0)
(1.00313 0.0114969 0)
(1.00425 0.00491583 0)
(1.00363 0.00580541 0)
(1.00129 0.00621401 0)
(0.998777 0.00343314 0)
(1.00442 0.00108122 0)
(1.00552 -0.00400973 0)
(0.994045 -0.00769085 0)
(0.99401 0.00871782 0)
(1.00201 0.00682447 0)
(1.00881 0.00660558 0)
(1.0111 -0.00608415 0)
(1.00021 -0.00834982 0)
(0.994181 -0.00523901 0)
(0.995768 -0.0037774 0)
(0.989428 0.00230127 0)
(0.990246 0.00775456 0)
(0.993317 0.00985618 0)
(0.999584 0.0168642 0)
(1.00406 0.00804429 0)
(1.00349 0.0109693 0)
(1.00432 0.00553212 0)
(1.00394 0.00564344 0)
(1.00154 0.00674153 0)
(0.999083 0.00338377 0)
(1.00407 0.000996237 0)
(1.00547 -0.0038418 0)
(0.994368 -0.00749201 0)
(0.994394 0.008512 0)
(1.00157 0.0065927 0)
(1.00872 0.00646744 0)
(1.01077 -0.00591629 0)
(1.00025 -0.00805142 0)
(0.994347 -0.00500558 0)
(0.995977 -0.00368577 0)
(0.98966 0.00239238 0)
(0.990604 0.00762065 0)
(0.993819 0.00965898 0)
(0.999857 0.0162377 0)
(1.00406 0.00825211 0)
(1.00361 0.0104842 0)
(1.00422 0.00608358 0)
(1.00412 0.0055807 0)
(1.00171 0.00712436 0)
(0.99927 0.0033311 0)
(1.00385 0.000914877 0)
(1.00539 -0.0036771 0)
(0.994557 -0.00728663 0)
(0.994721 0.0082997 0)
(1.00137 0.00636767 0)
(1.00859 0.00631137 0)
(1.01045 -0.00572804 0)
(1.00028 -0.00776974 0)
(0.99445 -0.00474649 0)
(0.996205 -0.00360417 0)
(0.989942 0.00248873 0)
(0.990912 0.00747171 0)
(0.994197 0.009465 0)
(0.999952 0.015612 0)
(1.00393 0.00843614 0)
(1.00362 0.0100538 0)
(1.00405 0.00657212 0)
(1.00425 0.0056022 0)
(1.00186 0.00739286 0)
(0.999386 0.00327464 0)
(1.00371 0.000837791 0)
(1.00529 -0.00351473 0)
(0.994698 -0.00707382 0)
(0.995008 0.00807575 0)
(1.0013 0.00615131 0)
(1.00843 0.00613761 0)
(1.01013 -0.00551785 0)
(1.00032 -0.00750315 0)
(0.994529 -0.00446584 0)
(0.996431 -0.00353023 0)
(0.99026 0.00258954 0)
(0.991194 0.00731963 0)
(0.994521 0.00926365 0)
(0.999971 0.0149995 0)
(1.00375 0.00858085 0)
(1.0036 0.00968466 0)
(1.00387 0.00700171 0)
(1.00434 0.0056783 0)
(1.00203 0.00756685 0)
(0.999453 0.00321417 0)
(1.00361 0.000765047 0)
(1.00517 -0.00335446 0)
(0.99485 -0.00685226 0)
(0.995263 0.00783588 0)
(1.00129 0.00594619 0)
(1.00824 0.00594665 0)
(1.00983 -0.00528595 0)
(1.00035 -0.00725211 0)
(0.994612 -0.00416168 0)
(0.99665 -0.00346888 0)
(0.990611 0.00268497 0)
(0.991462 0.00717352 0)
(0.994835 0.00904948 0)
(0.999962 0.0144109 0)
(1.00355 0.00868978 0)
(1.00355 0.00935224 0)
(1.0037 0.00736744 0)
(1.00441 0.00578952 0)
(1.00221 0.00766311 0)
(0.99948 0.00314939 0)
(1.00354 0.000697872 0)
(1.00503 -0.00319866 0)
(0.995041 -0.00661904 0)
(0.995491 0.0075777 0)
(1.00131 0.0057539 0)
(1.00801 0.00573785 0)
(1.00954 -0.00503166 0)
(1.00037 -0.00701829 0)
(0.994713 -0.00383459 0)
(0.996859 -0.00341318 0)
(0.990992 0.00276407 0)
(0.991719 0.00704534 0)
(0.995154 0.00881046 0)
(0.999943 0.0138596 0)
(1.00335 0.00877259 0)
(1.0035 0.00904998 0)
(1.00354 0.00768679 0)
(1.00444 0.00593428 0)
(1.00243 0.00769573 0)
(0.99947 0.00307999 0)
(1.0035 0.0006379 0)
(1.00485 -0.00304995 0)
(0.995275 -0.00637392 0)
(0.995695 0.00730261 0)
(1.00133 0.00557514 0)
(1.00774 0.00551036 0)
(1.00927 -0.00475499 0)
(1.00038 -0.00680049 0)
(0.994836 -0.00349547 0)
(0.997054 -0.00334717 0)
(0.991398 0.00282796 0)
(0.991958 0.00694068 0)
(0.995485 0.00854581 0)
(0.999922 0.0133449 0)
(1.00316 0.0088314 0)
(1.00344 0.0087721 0)
(1.00339 0.0079723 0)
(1.00444 0.00611009 0)
(1.00265 0.00766753 0)
(0.999428 0.00300609 0)
(1.00348 0.000585397 0)
(1.00464 -0.00291063 0)
(0.995544 -0.00611387 0)
(0.995877 0.00700832 0)
(1.00136 0.00541272 0)
(1.00743 0.00526491 0)
(1.009 -0.00445769 0)
(1.00037 -0.00659719 0)
(0.994976 -0.00314662 0)
(0.997236 -0.00327819 0)
(0.991824 0.00285951 0)
(0.992178 0.00686319 0)
(0.995824 0.00826058 0)
(0.999902 0.0128493 0)
(1.00297 0.00887986 0)
(1.00337 0.00849594 0)
(1.00327 0.00821633 0)
(1.00441 0.0063241 0)
(1.00289 0.00758822 0)
(0.999365 0.00292728 0)
(1.00348 0.000542323 0)
(1.00441 -0.00278293 0)
(0.995833 -0.00583799 0)
(0.996042 0.00669306 0)
(1.0014 0.00526676 0)
(1.0071 0.00500413 0)
(1.00873 -0.00414511 0)
(1.00036 -0.00640415 0)
(0.995125 -0.00278914 0)
(0.997405 -0.00319083 0)
(0.992265 0.0028487 0)
(0.992378 0.00681353 0)
(0.996163 0.00796356 0)
(0.99989 0.0123608 0)
(1.00278 0.00893651 0)
(1.00331 0.00822018 0)
(1.00317 0.00840056 0)
(1.00433 0.00657785 0)
(1.00313 0.00746908 0)
(0.999292 0.00284328 0)
(1.00348 0.000509703 0)
(1.00418 -0.00266701 0)
(0.996127 -0.00554938 0)
(0.996199 0.00636278 0)
(1.00144 0.00513271 0)
(1.00676 0.00473037 0)
(1.00845 -0.00382223 0)
(1.00034 -0.00621378 0)
(0.995276 -0.00243816 0)
(0.997562 -0.00306756 0)
(0.992714 0.00279878 0)
(0.992563 0.00679379 0)
(0.996492 0.00766219 0)
(0.999895 0.0118749 0)
(1.00259 0.00900362 0)
(1.00324 0.00795785 0)
(1.00309 0.00850808 0)
(1.00422 0.00687047 0)
(1.00336 0.00733095 0)
(0.999225 0.00275417 0)
(1.00346 0.000488322 0)
(1.00395 -0.00256606 0)
(0.996411 -0.00524315 0)
(0.996358 0.00601416 0)
(1.00146 0.00501385 0)
(1.00641 0.0044469 0)
(1.00817 -0.00349363 0)
(1.00033 -0.00601877 0)
(0.995426 -0.00210272 0)
(0.997715 -0.00291142 0)
(0.993167 0.00271104 0)
(0.992739 0.00679572 0)
(0.996804 0.0073706 0)
(0.999923 0.011378 0)
(1.00238 0.00908511 0)
(1.00318 0.00773128 0)
(1.00305 0.00852795 0)
(1.00409 0.00719144 0)
(1.00356 0.00720692 0)
(0.999177 0.00266013 0)
(1.00343 0.000478503 0)
(1.00375 -0.00248111 0)
(0.996679 -0.00492054 0)
(0.996525 0.00564893 0)
(1.00146 0.00490841 0)
(1.00608 0.00415496 0)
(1.00788 -0.00316198 0)
(1.00033 -0.00581633 0)
(0.995571 -0.00178779 0)
(0.997866 -0.00272237 0)
(0.993623 0.00259057 0)
(0.992913 0.00680592 0)
(0.997089 0.00710482 0)
(0.999983 0.0108671 0)
(1.00218 0.00917517 0)
(1.00311 0.00755689 0)
(1.00303 0.00846052 0)
(1.00395 0.00751502 0)
(1.00373 0.00712549 0)
(0.999153 0.00256017 0)
(1.00337 0.000482626 0)
(1.00356 -0.00241335 0)
(0.996929 -0.00458572 0)
(0.996708 0.00527473 0)
(1.00144 0.00481159 0)
(1.00577 0.00386468 0)
(1.00757 -0.00284072 0)
(1.00035 -0.00559799 0)
(0.995713 -0.00150435 0)
(0.998018 -0.00249616 0)
(0.994083 0.00244995 0)
(0.993092 0.00680753 0)
(0.997345 0.00687114 0)
(1.00008 0.0103428 0)
(1.00198 0.00925712 0)
(1.00303 0.0074386 0)
(1.00305 0.00831024 0)
(1.0038 0.00780934 0)
(1.00385 0.00712084 0)
(0.999154 0.00245561 0)
(1.00328 0.000498615 0)
(1.0034 -0.00236035 0)
(0.99716 -0.00424138 0)
(0.996906 0.00489101 0)
(1.0014 0.00472289 0)
(1.00547 0.00358343 0)
(1.00725 -0.00254141 0)
(1.00038 -0.00535195 0)
(0.995853 -0.00124729 0)
(0.998172 -0.00223653 0)
(0.994546 0.00229301 0)
(0.993282 0.00679281 0)
(0.997567 0.00668198 0)
(1.00021 0.00979861 0)
(1.00179 0.00931981 0)
(1.00293 0.00738545 0)
(1.00309 0.00809584 0)
(1.00368 0.00803792 0)
(1.0039 0.00722179 0)
(0.999176 0.0023457 0)
(1.00317 0.000527007 0)
(1.00325 -0.00232126 0)
(0.997376 -0.00388793 0)
(0.997119 0.00450447 0)
(1.00134 0.00462909 0)
(1.00518 0.00331275 0)
(1.00692 -0.00227287 0)
(1.00043 -0.0050748 0)
(0.995991 -0.00102064 0)
(0.998325 -0.00195235 0)
(0.995015 0.00213316 0)
(0.993487 0.00676196 0)
(0.997755 0.00654522 0)
(1.00038 0.00924895 0)
(1.00162 0.00934677 0)
(1.00281 0.00740783 0)
(1.00315 0.00785401 0)
(1.00359 0.00816834 0)
(1.00389 0.00742334 0)
(0.999211 0.00223044 0)
(1.00305 0.000569273 0)
(1.00312 -0.00229798 0)
(0.997578 -0.00352841 0)
(0.997341 0.00412048 0)
(1.00129 0.00452773 0)
(1.0049 0.00306888 0)
(1.0066 -0.00204466 0)
(1.00047 -0.00478156 0)
(0.99613 -0.000817879 0)
(0.998474 -0.00164982 0)
(0.995487 0.00197954 0)
(0.993712 0.00671165 0)
(0.997908 0.00644869 0)
(1.00058 0.00870941 0)
(1.00149 0.00932008 0)
(1.00267 0.00749038 0)
(1.00322 0.00761261 0)
(1.00355 0.00817666 0)
(1.00383 0.00767981 0)
(0.999253 0.00211134 0)
(1.00292 0.000621588 0)
(1.003 -0.00228405 0)
(0.99777 -0.0031715 0)
(0.997567 0.00374291 0)
(1.00123 0.00441505 0)
(1.00462 0.00285788 0)
(1.00627 -0.00184808 0)
(1.00052 -0.00447293 0)
(0.996269 -0.000630702 0)
(0.998613 -0.00134224 0)
(0.995963 0.00183374 0)
(0.993957 0.00663597 0)
(0.998028 0.00639464 0)
(1.00079 0.00819357 0)
(1.00141 0.00923445 0)
(1.00251 0.00761347 0)
(1.00328 0.00740899 0)
(1.00357 0.00807677 0)
(1.00375 0.00791444 0)
(0.999299 0.00198787 0)
(1.00279 0.000682386 0)
(1.00288 -0.00227791 0)
(0.997953 -0.00282053 0)
(0.997792 0.00338439 0)
(1.00118 0.00427745 0)
(1.00434 0.00268373 0)
(1.00594 -0.00168229 0)
(1.00057 -0.00415219 0)
(0.996409 -0.000454534 0)
(0.998741 -0.00102732 0)
(0.996439 0.00170417 0)
(0.994227 0.00653664 0)
(0.998118 0.00638211 0)
(1.001 0.00770652 0)
(1.00138 0.00908779 0)
(1.00233 0.00775967 0)
(1.00331 0.00726568 0)
(1.00364 0.00790081 0)
(1.00369 0.00805592 0)
(0.999346 0.00186096 0)
(1.00265 0.000751905 0)
(1.00276 -0.00227737 0)
(0.998127 -0.00248466 0)
(0.998011 0.00305529 0)
(1.00113 0.00410671 0)
(1.00407 0.00255083 0)
(1.00562 -0.00154409 0)
(1.00062 -0.00383517 0)
(0.996553 -0.00028178 0)
(0.998854 -0.00070907 0)
(0.996911 0.00158727 0)
(0.994522 0.00640815 0)
(0.99818 0.00640228 0)
(1.00121 0.0072585 0)
(1.0014 0.00887996 0)
(1.00215 0.00790413 0)
(1.00331 0.00717761 0)
(1.00373 0.00768922 0)
(1.00367 0.00808069 0)
(0.999393 0.00173165 0)
(1.0025 0.000826847 0)
(1.00264 -0.00227725 0)
(0.998294 -0.00217319 0)
(0.99822 0.00276177 0)
(1.00109 0.00389911 0)
(1.0038 0.00245042 0)
(1.0053 -0.00141179 0)
(1.00068 -0.00353328 0)
(0.996702 -0.000115957 0)
(0.998952 -0.000394121 0)
(0.997373 0.00149248 0)
(0.994844 0.00625462 0)
(0.99822 0.00645487 0)
(1.00141 0.00686374 0)
(1.00147 0.00861075 0)
(1.00198 0.00803127 0)
(1.00326 0.00713709 0)
(1.00383 0.00748422 0)
(1.0037 0.00800976 0)
(0.999438 0.00160166 0)
(1.00235 0.00090298 0)
(1.00253 -0.00226278 0)
(0.998455 -0.00189533 0)
(0.998418 0.00251412 0)
(1.00106 0.00365906 0)
(1.00353 0.0023734 0)
(1.00499 -0.00127771 0)
(1.00074 -0.00324992 0)
(0.996859 4.91272e-05 0)
(0.999034 -7.98456e-05 0)
(0.997824 0.00142214 0)
(0.995194 0.00608408 0)
(0.99824 0.00652299 0)
(1.00159 0.00652833 0)
(1.00159 0.00828553 0)
(1.00182 0.00813282 0)
(1.00318 0.0071353 0)
(1.00393 0.00729341 0)
(1.00377 0.00787359 0)
(0.999483 0.00147151 0)
(1.0022 0.000978154 0)
(1.00241 -0.00222993 0)
(0.998611 -0.0016594 0)
(0.998604 0.00230683 0)
(1.00103 0.00339527 0)
(1.00327 0.0023017 0)
(1.00468 -0.0011386 0)
(1.0008 -0.00297877 0)
(0.997024 0.000204502 0)
(0.999102 0.000239186 0)
(0.998259 0.00137088 0)
(0.995572 0.00588914 0)
(0.998246 0.0066005 0)
(1.00172 0.00626094 0)
(1.00176 0.00790847 0)
(1.00169 0.00819235 0)
(1.00305 0.00717369 0)
(1.00401 0.00711662 0)
(1.00388 0.00770256 0)
(0.999526 0.00134316 0)
(1.00204 0.00104657 0)
(1.00229 -0.002166 0)
(0.998762 -0.00147715 0)
(0.998778 0.00212921 0)
(1.001 0.00312525 0)
(1.00301 0.00222808 0)
(1.00437 -0.00098832 0)
(1.00086 -0.00272021 0)
(0.997201 0.00034828 0)
(0.999157 0.000557802 0)
(0.998673 0.00134702 0)
(0.995981 0.00566933 0)
(0.998246 0.00667743 0)
(1.00182 0.00606536 0)
(1.00196 0.00749197 0)
(1.00161 0.00818805 0)
(1.00289 0.00725377 0)
(1.00405 0.00695706 0)
(1.00402 0.00750644 0)
(0.999568 0.0012186 0)
(1.00188 0.00110476 0)
(1.00216 -0.00206077 0)
(0.998908 -0.00134171 0)
(0.99894 0.00196766 0)
(1.00097 0.002865 0)
(1.00276 0.00215271 0)
(1.00406 -0.000825598 0)
(1.00092 -0.00246728 0)
(0.997388 0.000489299 0)
(0.999199 0.000872186 0)
(0.999062 0.00135816 0)
(0.996421 0.00542165 0)
(0.998252 0.00672774 0)
(1.00187 0.00593959 0)
(1.00219 0.00705905 0)
(1.00159 0.00809688 0)
(1.0027 0.00736143 0)
(1.00405 0.00682927 0)
(1.00416 0.00728374 0)
(0.999609 0.00109843 0)
(1.00172 0.00114814 0)
(1.00203 -0.00192977 0)
(0.999047 -0.00123384 0)
(0.999091 0.00181113 0)
(1.00094 0.0026115 0)
(1.00252 0.00208179 0)
(1.00376 -0.000637269 0)
(1.00099 -0.00220546 0)
(0.997588 0.000618882 0)
(0.99923 0.00117602 0)
(0.999418 0.00140004 0)
(0.996885 0.00514131 0)
(0.998272 0.00672971 0)
(1.00186 0.00587391 0)
(1.00243 0.00663783 0)
(1.00164 0.00790856 0)
(1.0025 0.00747211 0)
(1.004 0.00676163 0)
(1.00431 0.00704834 0)
(0.999648 0.000982426 0)
(1.00156 0.00117837 0)
(1.0019 -0.00178452 0)
(0.999177 -0.00114591 0)
(0.99923 0.00166365 0)
(1.00091 0.00236528 0)
(1.00229 0.00201413 0)
(1.00346 -0.000418888 0)
(1.00104 -0.00193805 0)
(0.997802 0.000728749 0)
(0.999254 0.0014615 0)
(0.999735 0.00147656 0)
(0.997366 0.00483715 0)
(0.99832 0.00667031 0)
(1.0018 0.0058508 0)
(1.00266 0.0062569 0)
(1.00175 0.00763433 0)
(1.00232 0.00755064 0)
(1.00389 0.00676224 0)
(1.00444 0.00682104 0)
(0.999686 0.000873287 0)
(1.00141 0.00118079 0)
(1.00176 -0.00161952 0)
(0.999298 -0.0010684 0)
(0.999357 0.00152424 0)
(1.00089 0.00212699 0)
(1.00208 0.00195102 0)
(1.00317 -0.000181764 0)
(1.0011 -0.00166181 0)
(0.998031 0.000822944 0)
(0.999279 0.00172265 0)
(1.00001 0.00158686 0)
(0.997853 0.00452959 0)
(0.998403 0.00655361 0)
(1.00171 0.00585797 0)
(1.00285 0.00593934 0)
(1.00194 0.0072979 0)
(1.00218 0.00756365 0)
(1.00373 0.00681516 0)
(1.00453 0.0066362 0)
(0.999721 0.000777479 0)
(1.00126 0.00115151 0)
(1.00162 -0.0014458 0)
(0.999409 -0.000999789 0)
(0.999474 0.00140946 0)
(1.00088 0.00189411 0)
(1.0019 0.00186511 0)
(1.00289 5.69645e-05 0)
(1.00114 -0.00134581 0)
(0.99827 0.000924158 0)
(0.999307 0.00196302 0)
(1.00024 0.00173023 0)
(0.99834 0.00424077 0)
(0.998532 0.00638612 0)
(1.00159 0.00587745 0)
(1.003 0.00568863 0)
(1.00217 0.00692447 0)
(1.00211 0.00749636 0)
(1.00353 0.00688767 0)
(1.00455 0.0065203 0)
(0.999755 0.000683828 0)
(1.00111 0.00110996 0)
(1.00148 -0.00128221 0)
(0.999513 -0.000920452 0)
(0.999581 0.00127894 0)
(1.00086 0.00170674 0)
(1.00174 0.00174632 0)
(1.00264 0.000285063 0)
(1.00118 -0.00100341 0)
(0.998515 0.00102604 0)
(0.999342 0.00216972 0)
(1.00043 0.0018981 0)
(0.998813 0.00398949 0)
(0.998705 0.00618063 0)
(1.00146 0.00589911 0)
(1.0031 0.00550784 0)
(1.00243 0.00654205 0)
(1.00211 0.00735058 0)
(1.00333 0.00694079 0)
(1.0045 0.00646433 0)
(0.999787 0.000597392 0)
(1.00098 0.00105441 0)
(1.00134 -0.0011265 0)
(0.999606 -0.000856206 0)
(0.999681 0.00118576 0)
(1.00085 0.00151866 0)
(1.0016 0.00163071 0)
(1.00241 0.000538285 0)
(1.00121 -0.000648969 0)
(0.998756 0.0011378 0)
(0.999385 0.0023515 0)
(1.00058 0.00207989 0)
(0.999265 0.00377737 0)
(0.998924 0.00594085 0)
(1.00133 0.00590489 0)
(1.00315 0.00539336 0)
(1.0027 0.00617429 0)
(1.00219 0.00713676 0)
(1.00314 0.00695782 0)
(1.00439 0.0064564 0)
(0.999817 0.000525005 0)
(1.00085 0.0009724 0)
(1.0012 -0.000962009 0)
(0.999696 -0.000785739 0)
(0.999773 0.00112138 0)
(1.00084 0.00140264 0)
(1.0015 0.00157078 0)
(1.0022 0.00072491 0)
(1.00122 -0.000366754 0)
(0.998993 0.00119846 0)
(0.999439 0.00247159 0)
(1.00069 0.00224355 0)
(0.999687 0.0035922 0)
(0.999185 0.00567045 0)
(1.00124 0.00587332 0)
(1.00315 0.00533012 0)
(1.00297 0.00583952 0)
(1.00234 0.00685677 0)
(1.00301 0.00691947 0)
(1.00424 0.00646001 0)
(0.999845 0.000459711 0)
(1.00073 0.000879202 0)
(1.00107 -0.000797984 0)
(0.999775 -0.000691936 0)
(0.999865 0.0010775 0)
(1.00083 0.00138862 0)
(1.00141 0.00149637 0)
(1.00201 0.000804463 0)
(1.00122 -0.000128336 0)
(0.999236 0.00123635 0)
(0.999516 0.00253698 0)
(1.00079 0.00238287 0)
(1.00008 0.00343245 0)
(0.999478 0.00538122 0)
(1.00117 0.00579759 0)
(1.0031 0.00529962 0)
(1.00321 0.00556095 0)
(1.00255 0.00653014 0)
(1.00293 0.0068163 0)
(1.00407 0.00644991 0)
(0.99987 0.000404141 0)
(1.00063 0.000784017 0)
(1.00095 -0.000645635 0)
(0.999855 -0.000592448 0)
(0.999955 0.00105941 0)
(1.00082 0.0013418 0)
(1.00132 0.00140774 0)
(1.00184 0.000899447 0)
(1.00124 0.000122038 0)
(0.999473 0.0012934 0)
(0.999607 0.00259136 0)
(1.00086 0.00252866 0)
(1.00043 0.00332035 0)
(0.999794 0.00509971 0)
(1.00114 0.0056916 0)
(1.00303 0.0052919 0)
(1.00339 0.0053591 0)
(1.00279 0.00620389 0)
(1.00292 0.00666184 0)
(1.0039 0.00642834 0)
(0.999893 0.00035461 0)
(1.00053 0.000688306 0)
(1.00084 -0.000493414 0)
(0.999927 -0.000489311 0)
(1.00004 0.00099505 0)
(1.00081 0.00130984 0)
(1.00124 0.00138092 0)
(1.0017 0.000989938 0)
(1.00124 0.000331264 0)
(0.999705 0.0013434 0)
(0.999721 0.00263481 0)
(1.00092 0.00267854 0)
(1.00074 0.0032582 0)
(1.00013 0.00483749 0)
(1.00116 0.00555405 0)
(1.00294 0.00527881 0)
(1.00352 0.00521188 0)
(1.00305 0.00589053 0)
(1.00298 0.00644756 0)
(1.00376 0.00636672 0)
(0.999913 0.000315187 0)
(1.00045 0.000596687 0)
(1.00073 -0.000358768 0)
(0.999992 -0.000392189 0)
(1.00013 0.000941557 0)
(1.0008 0.00129689 0)
(1.00118 0.00136052 0)
(1.00158 0.00106252 0)
(1.00125 0.000534495 0)
(0.999935 0.00141999 0)
(0.999854 0.00266958 0)
(1.00098 0.00280318 0)
(1.00101 0.00321466 0)
(1.00046 0.00458015 0)
(1.00123 0.00537276 0)
(1.00286 0.00523664 0)
(1.0036 0.00510042 0)
(1.0033 0.00560626 0)
(1.0031 0.00619312 0)
(1.00367 0.00626061 0)
(0.999931 0.000282829 0)
(1.00038 0.000506938 0)
(1.00064 -0.000239666 0)
(1.00005 -0.000285451 0)
(1.00021 0.000890762 0)
(1.0008 0.00127381 0)
(1.00112 0.00136096 0)
(1.00147 0.00115068 0)
(1.00126 0.000723893 0)
(1.00015 0.00147761 0)
(0.999999 0.00266532 0)
(1.00102 0.00289286 0)
(1.00124 0.00318809 0)
(1.00078 0.00435133 0)
(1.00133 0.00517854 0)
(1.00279 0.00517577 0)
(1.00365 0.00502256 0)
(1.00352 0.0053672 0)
(1.00326 0.00592384 0)
(1.00363 0.00610906 0)
(0.999947 0.000256871 0)
(1.00032 0.000425673 0)
(1.00056 -0.00013686 0)
(1.0001 -0.000174211 0)
(1.0003 0.000841488 0)
(1.00082 0.00124783 0)
(1.00107 0.00137367 0)
(1.00138 0.00123813 0)
(1.00127 0.000892864 0)
(1.00036 0.00152692 0)
(1.00016 0.00265094 0)
(1.00107 0.00297605 0)
(1.00143 0.00318746 0)
(1.0011 0.00414891 0)
(1.00147 0.00496977 0)
(1.00274 0.00507847 0)
(1.00365 0.00494595 0)
(1.00371 0.00516545 0)
(1.00345 0.00565462 0)
(1.00364 0.00592336 0)
(0.99996 0.000237745 0)
(1.00028 0.000354198 0)
(1.00049 -4.89674e-05 0)
(1.00015 -5.66656e-05 0)
(1.00037 0.000804529 0)
(1.00084 0.00120831 0)
(1.00104 0.001382 0)
(1.00131 0.00132069 0)
(1.00128 0.00105441 0)
(1.00056 0.00158838 0)
(1.00034 0.00262384 0)
(1.00113 0.00302849 0)
(1.00158 0.00319574 0)
(1.00138 0.00396996 0)
(1.00164 0.00475621 0)
(1.00273 0.00496036 0)
(1.00365 0.00486955 0)
(1.00385 0.00500644 0)
(1.00364 0.0054065 0)
(1.0037 0.00571704 0)
(0.999971 0.000221751 0)
(1.00024 0.000300456 0)
(1.00044 3.03296e-05 0)
(1.00019 5.85457e-05 0)
(1.00044 0.000778152 0)
(1.00086 0.00115929 0)
(1.00102 0.00138524 0)
(1.00125 0.00140126 0)
(1.00128 0.00120794 0)
(1.00075 0.00165295 0)
(1.00052 0.00258105 0)
(1.00121 0.00303997 0)
(1.00171 0.00320442 0)
(1.00165 0.00382922 0)
(1.00183 0.00455464 0)
(1.00275 0.00483116 0)
(1.00364 0.00478713 0)
(1.00396 0.00486919 0)
(1.00383 0.00517652 0)
(1.00379 0.00548656 0)
(0.999981 0.000208673 0)
(1.00021 0.000265503 0)
(1.0004 9.31114e-05 0)
(1.00023 0.000163498 0)
(1.0005 0.00076714 0)
(1.0009 0.00111407 0)
(1.00102 0.00137944 0)
(1.00121 0.00147399 0)
(1.00129 0.0013502 0)
(1.00091 0.00171604 0)
(1.00071 0.00254048 0)
(1.00129 0.00303413 0)
(1.00183 0.00320804 0)
(1.00188 0.00371478 0)
(1.00202 0.00436142 0)
(1.00279 0.00467983 0)
(1.00363 0.00468743 0)
(1.00404 0.00473892 0)
(1.00399 0.00496996 0)
(1.00392 0.00525234 0)
(0.999989 0.00019879 0)
(1.00018 0.000244029 0)
(1.00037 0.000140873 0)
(1.00026 0.000256043 0)
(1.00055 0.000773872 0)
(1.00093 0.00107884 0)
(1.00104 0.00136357 0)
(1.00119 0.00153122 0)
(1.0013 0.00148161 0)
(1.00106 0.00178185 0)
(1.00089 0.0025021 0)
(1.00139 0.00301558 0)
(1.00193 0.00320165 0)
(1.00209 0.00360752 0)
(1.00221 0.00417615 0)
(1.00286 0.00451412 0)
(1.00363 0.00457191 0)
(1.00409 0.00461703 0)
(1.00412 0.0047891 0)
(1.00405 0.00503035 0)
(0.999996 0.000189528 0)
(1.00016 0.000234739 0)
(1.00035 0.00018228 0)
(1.0003 0.000334459 0)
(1.0006 0.000792837 0)
(1.00097 0.00105692 0)
(1.00107 0.00134493 0)
(1.00119 0.00157187 0)
(1.00131 0.00159719 0)
(1.00119 0.00185466 0)
(1.00107 0.00246488 0)
(1.0015 0.0029726 0)
(1.00202 0.00318336 0)
(1.00226 0.00351048 0)
(1.0024 0.00400368 0)
(1.00295 0.00435023 0)
(1.00364 0.00444364 0)
(1.00414 0.00449573 0)
(1.00423 0.00462429 0)
(1.00417 0.00481912 0)
(1 0.000182599 0)
(1.00014 0.000232287 0)
(1.00034 0.000217114 0)
(1.00033 0.000397769 0)
(1.00063 0.000819913 0)
(1.001 0.00105174 0)
(1.0011 0.0013299 0)
(1.0012 0.00159668 0)
(1.00133 0.00168837 0)
(1.0013 0.00192712 0)
(1.00124 0.00244046 0)
(1.00161 0.00291498 0)
(1.0021 0.003149 0)
(1.00241 0.00342799 0)
(1.00258 0.00384261 0)
(1.00305 0.00418683 0)
(1.00367 0.00430652 0)
(1.00417 0.00436464 0)
(1.00431 0.00446945 0)
(1.00428 0.00461942 0)
(1.00001 0.000176533 0)
(1.00013 0.000235616 0)
(1.00033 0.000250526 0)
(1.00037 0.000447406 0)
(1.00066 0.000848996 0)
(1.00103 0.00106202 0)
(1.00114 0.00132232 0)
(1.00123 0.00161007 0)
(1.00136 0.00175702 0)
(1.0014 0.00198554 0)
(1.00139 0.00242543 0)
(1.00173 0.00286095 0)
(1.00219 0.00309845 0)
(1.00255 0.0033487 0)
(1.00274 0.00369389 0)
(1.00316 0.00401773 0)
(1.0037 0.00416458 0)
(1.0042 0.00422587 0)
(1.00437 0.00431886 0)
(1.00438 0.00443748 0)
(1.00001 0.000171842 0)
(1.00012 0.000242839 0)
(1.00032 0.000283797 0)
(1.0004 0.000486454 0)
(1.00069 0.000875445 0)
(1.00105 0.0010843 0)
(1.00118 0.00132435 0)
(1.00127 0.00161517 0)
(1.00139 0.00180794 0)
(1.00149 0.00203153 0)
(1.00152 0.00240797 0)
(1.00184 0.00281081 0)
(1.00227 0.00304377 0)
(1.00266 0.00326487 0)
(1.00289 0.00355821 0)
(1.00327 0.00384834 0)
(1.00375 0.0040131 0)
(1.00423 0.00408423 0)
(1.00443 0.00416287 0)
(1.00445 0.00426973 0)
(1.00001 0.000168847 0)
(1.00011 0.00025165 0)
(1.00032 0.000318003 0)
(1.00044 0.00051961 0)
(1.00072 0.000897872 0)
(1.00107 0.00111202 0)
(1.00122 0.00133613 0)
(1.00132 0.00161737 0)
(1.00144 0.0018386 0)
(1.00157 0.00206833 0)
(1.00165 0.00238951 0)
(1.00195 0.00275251 0)
(1.00235 0.00298768 0)
(1.00276 0.00318266 0)
(1.00302 0.00342975 0)
(1.00338 0.00368942 0)
(1.00381 0.00385277 0)
(1.00426 0.00394004 0)
(1.00447 0.00400274 0)
(1.0045 0.00410395 0)
(1.00002 0.000167333 0)
(1.0001 0.000261196 0)
(1.00032 0.000353126 0)
(1.00047 0.000549879 0)
(1.00075 0.000915474 0)
(1.00109 0.00113879 0)
(1.00125 0.00135681 0)
(1.00137 0.00162372 0)
(1.00149 0.00185271 0)
(1.00165 0.00208835 0)
(1.00175 0.00237474 0)
(1.00205 0.00269117 0)
(1.00242 0.00292002 0)
(1.00284 0.00310467 0)
(1.00313 0.00330479 0)
(1.00348 0.00353729 0)
(1.00387 0.00369271 0)
(1.00429 0.0037888 0)
(1.00451 0.00384493 0)
(1.00455 0.00393222 0)
(1.00002 0.000167478 0)
(1.0001 0.000270973 0)
(1.00032 0.000387497 0)
(1.0005 0.000579365 0)
(1.00078 0.000929818 0)
(1.00111 0.00116346 0)
(1.00129 0.00138106 0)
(1.00142 0.0016332 0)
(1.00155 0.00186137 0)
(1.00172 0.00209045 0)
(1.00185 0.00235394 0)
(1.00215 0.00263757 0)
(1.00249 0.00284344 0)
(1.00291 0.00302267 0)
(1.00322 0.00318834 0)
(1.00357 0.003384 0)
(1.00392 0.00353423 0)
(1.00432 0.00362969 0)
(1.00454 0.00368584 0)
(1.00458 0.00375746 0)