/*--------------------------------*- C++ -*----------------------------------*\
| =========                 |                                                 |
| \\      /  F ield         | OpenFOAM: The Open Source CFD Toolbox           |
|  \\    /   O peration     | Version:  2506                                  |
|   \\  /    A nd           | Website:  www.openfoam.com                      |
|    \\/     M anipulation  |                                                 |
\*---------------------------------------------------------------------------*/
FoamFile
{
    version     2.0;
    format      ascii;
    arch        "LSB;label=32;scalar=64";
    class       volScalarField;
    location    "9.75";
    object      p;
}
// * * * * * * * * * * * * * * * * * * * * * * * * * * * * * * * * * * * * * //

dimensions      [0 2 -2 0 0 0 0];

internalField   nonuniform List<scalar> 
9600
(
1.25654e-10
0.0039238
-0.00123073
-0.00221072
0.00120669
0.00392635
-0.00539655
-0.00491156
-0.00479179
-0.00515025
-0.00458324
-0.00455447
-0.00527429
-0.00511735
-0.00549653
-0.00573237
-0.00537587
-0.00431415
-0.00255704
0.00168444
9.5848e-06
0.0038099
-0.00123646
-0.00216823
0.00120558
0.00385944
-0.00534891
-0.00491498
-0.00479087
-0.00512692
-0.00460307
-0.00455545
-0.00526631
-0.00511688
-0.00550021
-0.00574314
-0.00537299
-0.00432175
-0.00252884
0.00118971
1.38886e-05
0.00372758
-0.00123257
-0.00210726
0.00118128
0.00378194
-0.00530122
-0.00492489
-0.00477668
-0.00508579
-0.00462985
-0.00455203
-0.00525541
-0.00512624
-0.00550775
-0.00575285
-0.00537083
-0.00432728
-0.00254146
0.000687576
1.0063e-05
0.00364069
-0.0012177
-0.00206166
0.00114243
0.00369579
-0.00526332
-0.00493152
-0.00474744
-0.00503875
-0.00466284
-0.00455417
-0.00524552
-0.00514348
-0.00551583
-0.00575953
-0.00537403
-0.00434129
-0.00257794
0.000221127
-4.77834e-07
0.00355101
-0.0011914
-0.00203619
0.00109311
0.00360148
-0.00522055
-0.00493456
-0.00470616
-0.00499397
-0.00471023
-0.00456354
-0.00523406
-0.00516595
-0.00552513
-0.00577061
-0.00538026
-0.00436453
-0.00263149
-0.000210144
-1.56958e-05
0.00346359
-0.00115389
-0.0020302
0.00103566
0.0035051
-0.0051687
-0.00493921
-0.00465752
-0.00495897
-0.00477274
-0.00457716
-0.00522052
-0.00519261
-0.0055358
-0.00578612
-0.00538634
-0.00439594
-0.00270214
-0.000617358
-3.32499e-05
0.00338232
-0.00110801
-0.00204232
0.00097508
0.00341068
-0.00510553
-0.00494961
-0.00460583
-0.00493458
-0.00484515
-0.00459323
-0.00520601
-0.00522098
-0.0055456
-0.00580417
-0.00539225
-0.00443388
-0.002791
-0.00100495
-5.06603e-05
0.00330804
-0.00105908
-0.00206777
0.000915894
0.00331879
-0.0050322
-0.00496641
-0.00455287
-0.00491674
-0.00492228
-0.00461158
-0.0051906
-0.00524911
-0.0055541
-0.00582458
-0.00539912
-0.00447671
-0.0028985
-0.00137562
-6.6104e-05
0.00323873
-0.00101214
-0.00210042
0.00085931
0.00322752
-0.00495177
-0.00498824
-0.0044987
-0.00490133
-0.00500156
-0.00463208
-0.00517418
-0.00527725
-0.00556238
-0.00584737
-0.00540853
-0.00452351
-0.00302443
-0.00173261
-7.88435e-05
0.00317119
-0.000969765
-0.0021353
0.000803484
0.00313435
-0.00486788
-0.00501346
-0.00444331
-0.00488613
-0.00508201
-0.00465471
-0.00515735
-0.00530618
-0.0055714
-0.00587241
-0.00542206
-0.0045738
-0.00316826
-0.00207938
-8.90123e-05
0.00310258
-0.000932091
-0.00217011
0.000745578
0.00303754
-0.00478319
-0.00504094
-0.00438729
-0.00487027
-0.00516327
-0.00467982
-0.00514065
-0.00533612
-0.00558226
-0.00589933
-0.00544077
-0.00462767
-0.00332871
-0.00241862
-9.71345e-05
0.00303108
-0.000898364
-0.00220472
0.000683452
0.00293639
-0.004699
-0.0050701
-0.00433163
-0.00485344
-0.00524523
-0.00470768
-0.00512424
-0.00536737
-0.00559589
-0.00592725
-0.00546566
-0.00468581
-0.003503
-0.00275168
-0.00010378
0.00295577
-0.00086729
-0.00223977
0.00061625
0.002831
-0.00461641
-0.00510066
-0.00427731
-0.00483544
-0.00532782
-0.00473833
-0.00510842
-0.00540025
-0.00561256
-0.00595547
-0.0054977
-0.00474925
-0.00368767
-0.00307904
-0.00010939
0.00287629
-0.000838216
-0.00227585
0.000544134
0.00272179
-0.00453375
-0.00513241
-0.00422512
-0.00481604
-0.00541092
-0.00477176
-0.00509364
-0.00543456
-0.00563243
-0.00598412
-0.00553696
-0.00481889
-0.00388059
-0.00340173
-0.000114265
0.00279254
-0.000810846
-0.00231312
0.00046769
0.00260914
-0.00445155
-0.00516513
-0.00417572
-0.00479489
-0.00549447
-0.00480808
-0.0050801
-0.00546998
-0.00565584
-0.00601389
-0.0055827
-0.00489539
-0.00408148
-0.00372092
-0.000118618
0.00270452
-0.000785066
-0.00235146
0.000387537
0.00249335
-0.00436976
-0.0051986
-0.00412965
-0.00477155
-0.00557848
-0.00484733
-0.00506783
-0.0055065
-0.00568281
-0.00604581
-0.00563446
-0.00497921
-0.00429028
-0.00403649
-0.00012261
0.00261228
-0.000760921
-0.00239058
0.000304144
0.00237467
-0.00428845
-0.00523252
-0.00408745
-0.00474563
-0.00566299
-0.00488957
-0.00505682
-0.00554419
-0.00571282
-0.00608122
-0.005693
-0.00507014
-0.00450615
-0.00434835
-0.000126375
0.00251589
-0.000738561
-0.00243014
0.000217774
0.00225327
-0.00420777
-0.00526659
-0.00404972
-0.00471672
-0.00574798
-0.004935
-0.00504692
-0.00558342
-0.00574495
-0.0061213
-0.00576012
-0.0051668
-0.00472779
-0.00465788
-0.000130036
0.00241547
-0.000718221
-0.00246981
0.000128524
0.00212942
-0.00412799
-0.0053005
-0.0040171
-0.00468451
-0.00583333
-0.004984
-0.00503768
-0.00562488
-0.00577856
-0.00616623
-0.0058377
-0.00526759
-0.00495342
-0.00496783
-0.000133729
0.00231116
-0.000700193
-0.00250928
3.63426e-05
0.00200338
-0.00404939
-0.00533395
-0.00399022
-0.00464881
-0.0059188
-0.0050371
-0.00502831
-0.0056695
-0.00581386
-0.00621525
-0.00592759
-0.00537186
-0.00518029
-0.00528105
-0.000137606
0.00220312
-0.000684817
-0.00254825
-5.89307e-05
0.00187538
-0.00397221
-0.00536658
-0.00396973
-0.00460957
-0.00600388
-0.005095
-0.00501789
-0.00571807
-0.00585194
-0.00626678
-0.00603163
-0.00548061
-0.00540459
-0.00559955
-0.000141846
0.00209161
-0.000672489
-0.00258641
-0.00015752
0.00174571
-0.00389678
-0.0053981
-0.00395617
-0.00456689
-0.00608772
-0.0051588
-0.00500566
-0.00577058
-0.00589476
-0.00631875
-0.00615099
-0.00559661
-0.00562146
-0.0059241
-0.000146672
0.00197689
-0.000663645
-0.00262349
-0.000259738
0.00161467
-0.00382343
-0.00542841
-0.00394987
-0.00452117
-0.00616933
-0.00522975
-0.00499092
-0.00582634
-0.00594525
-0.00636893
-0.00628507
-0.00572376
-0.00582598
-0.00625354
-0.000152334
0.00185929
-0.00065876
-0.00265919
-0.000365928
0.00148249
-0.00375239
-0.00545753
-0.00395114
-0.00447292
-0.00624763
-0.00530904
-0.00497343
-0.00588437
-0.00600653
-0.00641561
-0.00643175
-0.00586691
-0.00601429
-0.00658319
-0.000159135
0.00173924
-0.000658358
-0.00269325
-0.000476374
0.00134926
-0.00368379
-0.00548556
-0.00396025
-0.0044229
-0.00632137
-0.00539772
-0.00495373
-0.00594301
-0.00608125
-0.00645825
-0.00658741
-0.0060315
-0.00618513
-0.00690362
-0.000167437
0.0016172
-0.000662952
-0.00272544
-0.000591342
0.00121507
-0.00361776
-0.00551273
-0.00397723
-0.00437204
-0.00638948
-0.00549658
-0.00493279
-0.00599999
-0.00617176
-0.00649771
-0.00674645
-0.00622247
-0.00634167
-0.00720168
-0.000177628
0.00149371
-0.000673067
-0.00275554
-0.000711013
0.00107983
-0.0035542
-0.00553954
-0.00400187
-0.00432106
-0.00645138
-0.00560601
-0.00491191
-0.00605294
-0.00628015
-0.00653642
-0.0069016
-0.00644247
-0.00649242
-0.007463
-0.000190165
0.00136939
-0.000689217
-0.00278344
-0.000835391
0.000943303
-0.00349274
-0.00556673
-0.00403399
-0.00427035
-0.00650645
-0.00572612
-0.00489269
-0.00609956
-0.00640793
-0.00657849
-0.00704515
-0.00669048
-0.00665114
-0.00767602
-0.000205559
0.00124492
-0.000711845
-0.00280916
-0.000964338
0.000805131
-0.00343294
-0.00559487
-0.00407405
-0.00422029
-0.00655384
-0.00585709
-0.00487699
-0.00613745
-0.00655559
-0.00662932
-0.00717019
-0.00696072
-0.00683497
-0.00783853
-0.000224351
0.00112093
-0.000741298
-0.00283276
-0.00109754
0.000664672
-0.0033741
-0.0056243
-0.00412296
-0.0041712
-0.00659299
-0.00599949
-0.00486675
-0.00616388
-0.00672262
-0.00669545
-0.00727176
-0.00724197
-0.00705937
-0.00796357
-0.000247179
0.000998137
-0.00077782
-0.0028545
-0.00123451
0.000521004
-0.00331527
-0.00565489
-0.00418171
-0.00412351
-0.00662351
-0.00615403
-0.00486445
-0.00617569
-0.00690734
-0.00678439
-0.00734807
-0.00751852
-0.00733221
-0.00807651
-0.000274691
0.000877181
-0.000821466
-0.00287473
-0.00137455
0.000372885
-0.00325582
-0.00568594
-0.00425152
-0.00407797
-0.00664401
-0.00632115
-0.00487407
-0.00616974
-0.00710596
-0.00690401
-0.00740205
-0.007773
-0.00764871
-0.0082097
-0.000307509
0.000758624
-0.000872136
-0.00289404
-0.00151653
0.000218752
-0.00319581
-0.00571614
-0.00433384
-0.00403546
-0.00665229
-0.00650088
-0.0049009
-0.00614374
-0.00731232
-0.00706138
-0.00744153
-0.007991
-0.00799194
-0.00839111
-0.000346337
0.000643001
-0.000929547
-0.0029133
-0.00165888
5.70823e-05
-0.0031359
-0.00574369
-0.00443005
-0.00399753
-0.00664635
-0.00669186
-0.00495088
-0.0060974
-0.00751831
-0.00726081
-0.00747662
-0.00816558
-0.00834192
-0.00863115
-0.000391898
0.000530663
-0.000993
-0.00293373
-0.00179986
-0.000113062
-0.00307732
-0.00576629
-0.00454087
-0.00396725
-0.00662433
-0.00689079
-0.00503032
-0.00603309
-0.00771389
-0.00750385
-0.00751811
-0.00829499
-0.00868189
-0.00892283
-0.000444788
0.000421706
-0.00106136
-0.0029569
-0.00193784
-0.000291852
-0.00302231
-0.00578134
-0.00466581
-0.00394869
-0.00658531
-0.00709294
-0.0051452
-0.005956
-0.00788722
-0.00778996
-0.00757921
-0.00837717
-0.0089982
-0.00925432
-0.000505571
0.000315943
-0.00113293
-0.00298473
-0.00207186
-0.000478801
-0.00297359
-0.0057865
-0.00480333
-0.00394603
-0.00652969
-0.00729326
-0.00529988
-0.00587423
-0.00802567
-0.00811377
-0.00767747
-0.00841266
-0.00927442
-0.00961558
-0.000574666
0.000212955
-0.00120549
-0.00301957
-0.00220183
-0.000672177
-0.00293439
-0.00578007
-0.00495081
-0.00396334
-0.00645968
-0.00748629
-0.00549581
-0.00579844
-0.00811888
-0.00846326
-0.00783168
-0.00841248
-0.00949001
-0.00999152
-0.000652354
0.000111935
-0.00127657
-0.00306319
-0.00232841
-0.000869226
-0.00290824
-0.00576205
-0.00510429
-0.00400443
-0.00637918
-0.00766561
-0.00573133
-0.00574133
-0.008162
-0.00882099
-0.00805381
-0.00839874
-0.00962808
-0.0103559
-0.000738909
1.18675e-05
-0.00134364
-0.00311668
-0.00245335
-0.00106675
-0.00289774
-0.0057339
-0.00525904
-0.00407205
-0.00629336
-0.00782486
-0.00600194
-0.00571547
-0.00815655
-0.0091668
-0.0083447
-0.00839973
-0.00968539
-0.010676
-0.000834377
-8.87147e-05
-0.00140426
-0.00318009
-0.00257958
-0.00126146
-0.00290378
-0.00569833
-0.00541049
-0.00416679
-0.00620865
-0.00795948
-0.00630063
-0.00573127
-0.00810942
-0.00948182
-0.00869692
-0.00844264
-0.00967501
-0.010921
-0.000939103
-0.000191642
-0.00145687
-0.00325256
-0.00271067
-0.00145031
-0.00292517
-0.00566065
-0.00555528
-0.00428648
-0.00613186
-0.00806839
-0.00661915
-0.00579675
-0.00803135
-0.00974871
-0.00909747
-0.0085485
-0.00962014
-0.0110707
-0.0010494
-0.000298731
-0.001501
-0.00333201
-0.00285034
-0.00163168
-0.00295931
-0.00562688
-0.0056931
-0.00442724
-0.00606776
-0.00815326
-0.00694928
-0.00591706
-0.00793581
-0.00995177
-0.00952788
-0.00873244
-0.00954901
-0.0111211
-0.00116612
-0.000411978
-0.00153675
-0.00341492
-0.00300208
-0.00180646
-0.0030025
-0.0056013
-0.00582574
-0.00458453
-0.00601705
-0.00821544
-0.00728467
-0.00609487
-0.00783831
-0.0100798
-0.00996314
-0.00900289
-0.00949385
-0.0110826
-0.00128828
-0.000533312
-0.00156534
-0.00349685
-0.00316838
-0.00197684
-0.00305004
-0.00558625
-0.00595646
-0.00475567
-0.00597908
-0.0082547
-0.00762065
-0.0063304
-0.00775485
-0.0101298
-0.0103733
-0.00935671
-0.00948937
-0.0109783
-0.00141456
-0.000664645
-0.00158914
-0.00357269
-0.0033502
-0.00214716
-0.00309646
-0.0055809
-0.00609158
-0.00494112
-0.0059535
-0.00826954
-0.0079513
-0.00662018
-0.00770098
-0.0101095
-0.0107298
-0.00977544
-0.00956659
-0.0108416
-0.00154333
-0.000807719
-0.00161138
-0.00363694
-0.00354724
-0.00232453
-0.00313771
-0.00558179
-0.00623742
-0.00514303
-0.00594105
-0.00825795
-0.0082674
-0.00695821
-0.00769134
-0.0100351
-0.0110105
-0.0102279
-0.00974328
-0.0107134
-0.00167306
-0.000963701
-0.00163648
-0.00368391
-0.00375714
-0.00251835
-0.00317418
-0.00558172
-0.00639455
-0.00536586
-0.00594632
-0.00821804
-0.00855683
-0.00733565
-0.00773864
-0.00992686
-0.0112037
-0.0106796
-0.0100185
-0.0106368
-0.00180205
-0.00113284
-0.00167018
-0.0037099
-0.00397581
-0.00273791
-0.00321034
-0.00556953
-0.00655747
-0.00561439
-0.00597649
-0.00815198
-0.00880635
-0.00773916
-0.00785294
-0.0098093
-0.0113087
-0.0110976
-0.0103733
-0.0106441
-0.00192902
-0.00131486
-0.00171763
-0.00371476
-0.00419627
-0.00298823
-0.00325299
-0.00553803
-0.00671898
-0.00588927
-0.00604024
-0.00806805
-0.00900499
-0.00815103
-0.00803725
-0.00970921
-0.0113352
-0.011453
-0.010777
-0.0107499
-0.00205323
-0.00150842
-0.00178392
-0.00370038
-0.0044085
-0.00327033
-0.00331402
-0.00548677
-0.00686613
-0.00618548
-0.00614737
-0.00797842
-0.00914722
-0.00855299
-0.0082849
-0.00964999
-0.0113052
-0.0117256
-0.0111932
-0.010952
-0.00217424
-0.00171042
-0.00187345
-0.00367115
-0.00460146
-0.00358119
-0.00340816
-0.00542153
-0.00698414
-0.00649371
-0.00630322
-0.00789705
-0.00923318
-0.00892825
-0.0085836
-0.00964653
-0.0112463
-0.0119111
-0.011584
-0.0112337
-0.00229273
-0.00191687
-0.00198853
-0.00363508
-0.00476557
-0.00391493
-0.00354938
-0.00535204
-0.00706348
-0.00680056
-0.00650592
-0.00784043
-0.00927032
-0.00926055
-0.00891711
-0.00970315
-0.0111817
-0.0120203
-0.0119158
-0.01156
-0.00240882
-0.00212378
-0.0021303
-0.00360231
-0.00489436
-0.00426056
-0.00374627
-0.00529395
-0.00710081
-0.00708914
-0.00674752
-0.00782354
-0.00927339
-0.00953931
-0.00926701
-0.00982118
-0.0111314
-0.0120746
-0.0121725
-0.0118864
-0.00252322
-0.00232739
-0.0022982
-0.00358369
-0.00498631
-0.00460187
-0.00399978
-0.0052675
-0.00710042
-0.00734295
-0.00701588
-0.00785224
-0.00925775
-0.00976085
-0.00961199
-0.00999643
-0.0111117
-0.0120951
-0.0123607
-0.0121762
-0.00263887
-0.00252713
-0.00248821
-0.0035857
-0.00504231
-0.00492351
-0.00430689
-0.00528862
-0.00707152
-0.00755191
-0.00729564
-0.00792693
-0.00923819
-0.00992929
-0.00993533
-0.010216
-0.0111331
-0.0120975
-0.0124956
-0.0124136
-0.00275511
-0.00272693
-0.00269788
-0.00361663
-0.00506895
-0.00521528
-0.00465409
-0.00536427
-0.00703006
-0.00771565
-0.00757145
-0.00804415
-0.00922822
-0.0100522
-0.0102268
-0.0104642
-0.0112016
-0.0120968
-0.0125895
-0.0126038
-0.00287086
-0.00289435
-0.00292216
-0.00369771
-0.00509829
-0.00546882
-0.00500968
-0.0054933
-0.00699493
-0.00783782
-0.0078326
-0.00819502
-0.00923674
-0.0101366
-0.0104758
-0.0107235
-0.0113172
-0.012109
-0.0126494
-0.0127538
-0.00299436
-0.00307334
-0.00314998
-0.0038098
-0.00512923
-0.00568077
-0.00535367
-0.00566862
-0.00698324
-0.00792764
-0.00807323
-0.0083718
-0.00927129
-0.0101959
-0.0106784
-0.0109774
-0.0114734
-0.012151
-0.0126897
-0.0128657
-0.00312443
-0.00324032
-0.00338256
-0.00395163
-0.00516783
-0.00585451
-0.0056787
-0.00588167
-0.0070045
-0.00799721
-0.00829091
-0.00856777
-0.00933378
-0.0102417
-0.0108359
-0.011208
-0.0116542
-0.0122317
-0.012732
-0.0129462
-0.00326257
-0.00340911
-0.00360912
-0.00411416
-0.0052223
-0.00600067
-0.0059797
-0.00612107
-0.00706009
-0.00805561
-0.00848412
-0.00877477
-0.00942478
-0.0102835
-0.0109559
-0.0114068
-0.01184
-0.0123465
-0.0127963
-0.0130154
-0.0034125
-0.00357791
-0.00382805
-0.00429085
-0.00529567
-0.00612926
-0.0062542
-0.00637527
-0.00715116
-0.00811155
-0.00865181
-0.00898307
-0.00954387
-0.0103312
-0.0110444
-0.01157
-0.0120134
-0.0124738
-0.0128808
-0.0130874
-0.00357128
-0.00375408
-0.00403968
-0.00447887
-0.00538977
-0.00624815
-0.00650345
-0.00663409
-0.00727293
-0.00816984
-0.00879065
-0.00917906
-0.00968506
-0.0103943
-0.0111106
-0.0116994
-0.0121694
-0.0125998
-0.0129734
-0.0131663
-0.0037337
-0.00391992
-0.00425193
-0.00468363
-0.0055056
-0.00636096
-0.00672613
-0.00688926
-0.00741924
-0.00823661
-0.00890636
-0.00935646
-0.0098385
-0.0104804
-0.0111707
-0.0117976
-0.0123083
-0.0127266
-0.0130708
-0.0132497
-0.00390453
-0.00409692
-0.00445732
-0.00489145
-0.00564128
-0.00647391
-0.00692473
-0.00713535
-0.00758506
-0.00831615
-0.00900625
-0.0095126
-0.00998941
-0.0105813
-0.0112338
-0.0118665
-0.0124172
-0.0128481
-0.0131719
-0.0133377
-0.00408351
-0.00427443
-0.00465758
-0.0051015
-0.00579362
-0.00659058
-0.00710307
-0.00736768
-0.00776386
-0.0084104
-0.00909429
-0.00964599
-0.0101312
-0.0106873
-0.0113053
-0.0119208
-0.0124896
-0.0129484
-0.013268
-0.0134248
-0.00426931
-0.00446143
-0.00485405
-0.00531001
-0.00595925
-0.00671378
-0.00726484
-0.00758276
-0.0079491
-0.00852037
-0.00917637
-0.0097556
-0.0102587
-0.0107901
-0.011379
-0.0119745
-0.0125376
-0.0130187
-0.0133505
-0.0135052
-0.00445922
-0.00464797
-0.00504989
-0.00551804
-0.00613516
-0.00684651
-0.00741622
-0.00777873
-0.00813133
-0.00864286
-0.00926033
-0.00984453
-0.0103658
-0.0108844
-0.0114435
-0.0120223
-0.0125711
-0.0130586
-0.01341
-0.0135723
-0.00465529
-0.00484129
-0.00524421
-0.00572133
-0.00631771
-0.00698959
-0.00756386
-0.00795925
-0.00830551
-0.00876904
-0.00934417
-0.00991508
-0.0104452
-0.0109627
-0.0114937
-0.0120515
-0.0125893
-0.0130723
-0.01344
-0.0136177
-0.00485739
-0.00504514
-0.00543755
-0.00591937
-0.00650532
-0.00714254
-0.00770771
-0.00812352
-0.00846954
-0.0088935
-0.00942373
-0.00997234
-0.0104969
-0.0110156
-0.0115288
-0.0120595
-0.0125873
-0.0130634
-0.0134381
-0.0136317
-0.00505947
-0.00524291
-0.00563609
-0.00611886
-0.00669478
-0.00730233
-0.00785194
-0.00827489
-0.00862324
-0.00901851
-0.00950085
-0.0100185
-0.0105244
-0.0110319
-0.011535
-0.0120386
-0.0125507
-0.0130217
-0.0133984
-0.0136067
-0.00526652
-0.00544903
-0.00583614
-0.00631458
-0.00688094
-0.00746496
-0.0080003
-0.00842103
-0.0087656
-0.00913828
-0.00957169
-0.0100458
-0.0105248
-0.0110058
-0.0114953
-0.0119774
-0.0124676
-0.0129365
-0.0133169
-0.0135389
-0.00547979
-0.00566151
-0.00603733
-0.00650579
-0.0070641
-0.00762795
-0.00814869
-0.00856734
-0.0089046
-0.00925161
-0.00963478
-0.0100512
-0.0104862
-0.0109257
-0.0113863
-0.0118538
-0.0123249
-0.0127929
-0.0131833
-0.013425
-0.00569342
-0.00587183
-0.00624482
-0.00670206
-0.00724507
-0.00778745
-0.00829278
-0.00871537
-0.00906337
-0.00938235
-0.00969708
-0.0100299
-0.0103856
-0.0107489
-0.0111288
-0.0115341
-0.0119571
-0.0124094
-0.0128555
-0.0132178
-0.0059067
-0.00608667
-0.00645923
-0.00690686
-0.00742593
-0.00793993
-0.00842224
-0.00885723
-0.00927422
-0.00965467
-0.00992144
-0.0101423
-0.010386
-0.0106616
-0.0109414
-0.0111875
-0.0113545
-0.0114308
-0.0114469
-0.0114742
-0.00612609
-0.00628504
-0.00664256
-0.00707786
-0.00759828
-0.00810774
-0.00853062
-0.00886308
-0.00916514
-0.00948001
-0.00979214
-0.0101047
-0.0103984
-0.010652
-0.01085
-0.0109912
-0.0110923
-0.0111827
-0.0113079
-0.0115227
-0.00641611
-0.00659667
-0.00685527
-0.00716945
-0.00759436
-0.00805382
-0.00848765
-0.00886446
-0.00921167
-0.00955399
-0.00988959
-0.0102266
-0.0105267
-0.0107725
-0.0109606
-0.0110786
-0.0111256
-0.0111167
-0.0110987
-0.0111531
-0.00652667
-0.00663642
-0.00691245
-0.00724548
-0.00766013
-0.00810457
-0.00853719
-0.00891984
-0.00926922
-0.0095957
-0.00988351
-0.0101565
-0.0104162
-0.0106515
-0.0109016
-0.0112103
-0.01161
-0.0121079
-0.0126557
-0.0131769
-0.00677234
-0.00691526
-0.00710297
-0.00733147
-0.00768776
-0.00810966
-0.00853897
-0.0089382
-0.00930497
-0.00964452
-0.00996118
-0.0102514
-0.0105159
-0.0107311
-0.0108661
-0.0109379
-0.0109449
-0.0109248
-0.0109306
-0.01105
-0.00690462
-0.00702068
-0.00717946
-0.00737271
-0.0076973
-0.00810889
-0.00853977
-0.00894696
-0.00933521
-0.00968857
-0.0100141
-0.0103036
-0.0105392
-0.0107265
-0.0108446
-0.0109305
-0.0110155
-0.0111339
-0.0113205
-0.0116286
0.00436234
-0.00188639
-0.0100745
-0.0160372
-0.0178681
-0.0172682
-0.0163675
-0.0158943
-0.01591
-0.0162516
-0.0166258
-0.016811
-0.0167821
-0.0166799
-0.0167202
-0.0169724
-0.0172935
-0.0175304
-0.0175922
-0.0175219
-0.017519
-0.0176517
-0.0177947
-0.0179007
-0.0180308
-0.0181918
-0.018344
-0.0185164
-0.0187611
-0.019039
-0.0193042
-0.0195657
-0.0198164
-0.020039
-0.0202845
-0.0205718
-0.0208571
-0.0211055
-0.0213451
-0.0216326
-0.0219461
-0.022209
-0.0224356
-0.0226801
-0.0229834
-0.0233332
-0.0237413
-0.0242309
-0.0246999
-0.0250041
-0.0251883
-0.0254107
-0.0257036
-0.0260121
-0.0263201
-0.026685
-0.0271235
-0.0275812
-0.0279965
-0.0283574
-0.0287317
-0.0291312
-0.0295497
-0.029971
-0.0303828
-0.0307805
-0.0312191
-0.0316771
-0.0321114
-0.0325541
-0.0330242
-0.0334845
-0.0339197
-0.0343807
-0.0348486
-0.0353343
-0.0357983
-0.0362913
-0.0367947
-0.0373153
-0.0378125
-0.0383184
-0.0388422
-0.0394118
-0.0400106
-0.0405803
-0.0411695
-0.0417218
-0.0423342
-0.0429345
-0.0435537
-0.044211
-0.0448429
-0.0454936
-0.046154
-0.0467724
-0.0474767
-0.0481389
-0.048718
-0.0494308
0.00360145
-0.00202609
-0.00998663
-0.0158941
-0.0177811
-0.0172249
-0.0163396
-0.0158749
-0.0158962
-0.0162417
-0.0166187
-0.0168057
-0.0167778
-0.0166758
-0.016716
-0.0169685
-0.0172901
-0.0175277
-0.0175898
-0.0175196
-0.0175166
-0.0176496
-0.0177929
-0.017899
-0.0180292
-0.0181904
-0.0183427
-0.018515
-0.0187598
-0.0190378
-0.019303
-0.0195646
-0.0198153
-0.0200379
-0.0202834
-0.0205708
-0.0208561
-0.0211046
-0.0213442
-0.0216317
-0.0219453
-0.0222083
-0.0224349
-0.0226794
-0.0229827
-0.0233325
-0.0237407
-0.0242303
-0.0246994
-0.0250037
-0.0251879
-0.0254102
-0.0257032
-0.0260118
-0.0263197
-0.0266846
-0.0271231
-0.0275809
-0.0279962
-0.0283572
-0.0287314
-0.029131
-0.0295494
-0.0299708
-0.0303826
-0.0307803
-0.0312189
-0.0316769
-0.0321112
-0.0325539
-0.033024
-0.0334843
-0.0339195
-0.0343805
-0.0348484
-0.0353341
-0.0357981
-0.0362912
-0.0367945
-0.0373152
-0.0378123
-0.0383182
-0.038842
-0.0394116
-0.0400104
-0.0405802
-0.0411694
-0.0417217
-0.0423341
-0.0429344
-0.0435536
-0.0442109
-0.0448428
-0.0454935
-0.0461539
-0.0467723
-0.0474766
-0.0481388
-0.0487179
-0.0494307
0.00290758
-0.00214878
-0.009805
-0.0156323
-0.017637
-0.0171735
-0.0163135
-0.0158532
-0.0158781
-0.0162272
-0.0166071
-0.0167969
-0.0167716
-0.0166712
-0.0167123
-0.0169651
-0.017287
-0.0175249
-0.0175874
-0.0175173
-0.0175144
-0.0176477
-0.0177911
-0.0178973
-0.0180277
-0.0181891
-0.0183414
-0.0185138
-0.0187587
-0.0190368
-0.0193021
-0.0195636
-0.0198144
-0.020037
-0.0202824
-0.0205699
-0.0208553
-0.0211038
-0.0213433
-0.0216309
-0.0219446
-0.0222077
-0.0224343
-0.0226787
-0.0229821
-0.0233319
-0.02374
-0.0242298
-0.0246991
-0.0250034
-0.0251875
-0.0254098
-0.0257028
-0.0260114
-0.0263194
-0.0266843
-0.0271228
-0.0275806
-0.027996
-0.0283569
-0.0287311
-0.0291307
-0.0295492
-0.0299706
-0.0303824
-0.0307801
-0.0312187
-0.0316767
-0.032111
-0.0325537
-0.0330239
-0.0334842
-0.0339193
-0.0343803
-0.0348483
-0.035334
-0.035798
-0.036291
-0.0367944
-0.0373151
-0.0378122
-0.0383181
-0.0388419
-0.0394115
-0.0400103
-0.0405801
-0.0411693
-0.0417216
-0.042334
-0.0429343
-0.0435535
-0.0442108
-0.0448428
-0.0454935
-0.0461538
-0.0467723
-0.0474765
-0.0481388
-0.0487178
-0.0494307
0.00226139
-0.00227187
-0.00958025
-0.0153061
-0.0174426
-0.0171038
-0.0162775
-0.0158215
-0.0158512
-0.0162052
-0.0165878
-0.0167803
-0.0167594
-0.0166639
-0.016708
-0.0169616
-0.0172828
-0.0175204
-0.0175837
-0.0175144
-0.0175119
-0.0176453
-0.0177888
-0.0178952
-0.0180258
-0.0181874
-0.0183398
-0.0185124
-0.0187575
-0.0190358
-0.0193011
-0.0195627
-0.0198136
-0.0200362
-0.0202815
-0.020569
-0.0208544
-0.021103
-0.0213425
-0.0216301
-0.0219438
-0.022207
-0.0224336
-0.022678
-0.0229813
-0.0233312
-0.0237394
-0.0242293
-0.0246989
-0.0250031
-0.025187
-0.0254093
-0.0257024
-0.0260111
-0.026319
-0.0266838
-0.0271224
-0.0275804
-0.0279958
-0.0283567
-0.0287309
-0.0291305
-0.029549
-0.0299704
-0.0303822
-0.0307799
-0.0312185
-0.0316766
-0.0321109
-0.0325535
-0.0330237
-0.033484
-0.0339192
-0.0343802
-0.0348481
-0.0353338
-0.0357978
-0.0362909
-0.0367943
-0.0373149
-0.0378121
-0.038318
-0.0388418
-0.0394114
-0.0400102
-0.04058
-0.0411692
-0.0417215
-0.0423339
-0.0429343
-0.0435534
-0.0442107
-0.0448427
-0.0454934
-0.0461537
-0.0467722
-0.0474764
-0.0481387
-0.0487178
-0.0494307
0.00162447
-0.00241842
-0.00935123
-0.014963
-0.017229
-0.0170253
-0.0162363
-0.0157823
-0.0158162
-0.0161753
-0.0165598
-0.0167544
-0.0167394
-0.0166519
-0.016702
-0.016957
-0.0172766
-0.0175131
-0.0175775
-0.0175106
-0.0175092
-0.0176424
-0.0177858
-0.0178926
-0.0180235
-0.0181851
-0.0183377
-0.0185106
-0.0187562
-0.0190346
-0.0192999
-0.0195616
-0.0198128
-0.0200355
-0.0202808
-0.0205681
-0.0208535
-0.0211022
-0.0213418
-0.0216292
-0.021943
-0.0222061
-0.0224328
-0.0226772
-0.0229804
-0.0233303
-0.0237386
-0.0242288
-0.0246986
-0.0250028
-0.0251865
-0.0254087
-0.0257019
-0.0260107
-0.0263185
-0.0266833
-0.027122
-0.0275801
-0.0279956
-0.0283564
-0.0287305
-0.0291302
-0.0295487
-0.0299702
-0.030382
-0.0307796
-0.0312182
-0.0316764
-0.0321107
-0.0325533
-0.0330235
-0.0334839
-0.033919
-0.03438
-0.034848
-0.0353337
-0.0357977
-0.0362907
-0.0367941
-0.0373148
-0.037812
-0.0383178
-0.0388416
-0.0394112
-0.0400101
-0.0405799
-0.0411691
-0.0417214
-0.0423338
-0.0429342
-0.0435533
-0.0442106
-0.0448426
-0.0454933
-0.0461537
-0.0467721
-0.0474763
-0.0481387
-0.0487177
-0.0494308
0.000992947
-0.00259194
-0.00913086
-0.0146182
-0.0170063
-0.0169431
-0.016195
-0.0157406
-0.0157766
-0.0161403
-0.0165259
-0.0167217
-0.0167131
-0.0166358
-0.0166938
-0.0169507
-0.0172678
-0.0175022
-0.0175684
-0.0175053
-0.017506
-0.0176388
-0.017782
-0.0178894
-0.018021
-0.0181825
-0.018335
-0.0185083
-0.0187544
-0.0190331
-0.0192984
-0.0195602
-0.0198117
-0.0200349
-0.0202801
-0.0205671
-0.0208524
-0.0211014
-0.0213412
-0.0216285
-0.021942
-0.0222051
-0.0224319
-0.0226762
-0.0229793
-0.0233291
-0.0237376
-0.0242282
-0.0246982
-0.0250024
-0.0251859
-0.0254081
-0.0257013
-0.0260102
-0.026318
-0.0266828
-0.0271215
-0.0275798
-0.0279953
-0.028356
-0.0287301
-0.0291298
-0.0295484
-0.0299699
-0.0303817
-0.0307794
-0.031218
-0.0316762
-0.0321105
-0.0325531
-0.0330233
-0.0334837
-0.0339188
-0.0343798
-0.0348478
-0.0353335
-0.0357975
-0.0362905
-0.036794
-0.0373147
-0.0378119
-0.0383177
-0.0388415
-0.0394111
-0.04001
-0.0405798
-0.041169
-0.0417213
-0.0423337
-0.0429341
-0.0435532
-0.0442105
-0.0448425
-0.0454932
-0.0461536
-0.046772
-0.0474762
-0.0481387
-0.0487178
-0.049431
0.000371413
-0.00279149
-0.00892396
-0.0142745
-0.0167746
-0.0168561
-0.0161541
-0.0156979
-0.0157339
-0.0161021
-0.0164888
-0.0166855
-0.0166833
-0.0166171
-0.0166839
-0.0169426
-0.0172565
-0.0174881
-0.0175564
-0.0174985
-0.0175021
-0.0176345
-0.0177773
-0.0178859
-0.0180184
-0.0181799
-0.0183323
-0.0185059
-0.0187525
-0.0190313
-0.0192964
-0.0195582
-0.0198103
-0.0200342
-0.0202796
-0.020566
-0.020851
-0.0211005
-0.0213408
-0.0216278
-0.0219408
-0.022204
-0.022431
-0.0226752
-0.0229779
-0.0233275
-0.0237364
-0.0242274
-0.0246977
-0.0250017
-0.0251851
-0.0254074
-0.0257007
-0.0260096
-0.0263173
-0.0266821
-0.0271209
-0.0275793
-0.0279949
-0.0283556
-0.0287297
-0.0291294
-0.0295481
-0.0299696
-0.0303814
-0.030779
-0.0312177
-0.0316759
-0.0321102
-0.0325529
-0.0330232
-0.0334835
-0.0339186
-0.0343796
-0.0348476
-0.0353334
-0.0357973
-0.0362904
-0.0367938
-0.0373145
-0.0378117
-0.0383175
-0.0388413
-0.0394109
-0.0400099
-0.0405796
-0.0411689
-0.0417212
-0.0423335
-0.042934
-0.0435531
-0.0442104
-0.0448424
-0.0454931
-0.0461535
-0.046772
-0.0474761
-0.0481388
-0.0487179
-0.0494312
-0.000236263
-0.00301724
-0.00873414
-0.0139326
-0.016532
-0.0167619
-0.0161129
-0.0156547
-0.0156886
-0.0160611
-0.0164497
-0.0166473
-0.0166516
-0.0165968
-0.0166727
-0.0169332
-0.0172432
-0.0174716
-0.0175423
-0.0174905
-0.0174975
-0.0176295
-0.0177719
-0.017882
-0.0180158
-0.0181774
-0.0183298
-0.0185039
-0.0187507
-0.0190292
-0.0192939
-0.0195555
-0.0198085
-0.0200335
-0.0202789
-0.0205645
-0.0208492
-0.0210994
-0.0213405
-0.0216272
-0.0219395
-0.0222028
-0.0224304
-0.0226744
-0.0229763
-0.0233257
-0.0237349
-0.0242264
-0.0246968
-0.0250008
-0.0251843
-0.0254066
-0.0257
-0.0260089
-0.0263166
-0.0266813
-0.0271202
-0.0275788
-0.0279945
-0.028355
-0.0287291
-0.0291289
-0.0295476
-0.0299691
-0.0303809
-0.0307787
-0.0312174
-0.0316756
-0.0321099
-0.0325527
-0.0330229
-0.0334833
-0.0339184
-0.0343794
-0.0348474
-0.0353332
-0.0357972
-0.0362902
-0.0367936
-0.0373144
-0.0378116
-0.0383173
-0.0388411
-0.0394108
-0.0400098
-0.0405795
-0.0411688
-0.041721
-0.0423334
-0.0429338
-0.0435529
-0.0442103
-0.0448423
-0.045493
-0.0461535
-0.0467719
-0.047476
-0.0481389
-0.0487181
-0.0494316
-0.000827348
-0.00326842
-0.00856394
-0.013593
-0.0162769
-0.0166583
-0.0160708
-0.0156115
-0.015641
-0.0160174
-0.0164085
-0.0166075
-0.0166184
-0.0165752
-0.0166605
-0.016923
-0.0172288
-0.0174537
-0.0175267
-0.0174813
-0.0174923
-0.0176241
-0.0177661
-0.0178778
-0.018013
-0.018175
-0.0183278
-0.0185026
-0.0187494
-0.0190272
-0.0192909
-0.0195521
-0.019806
-0.0200325
-0.0202782
-0.0205627
-0.0208468
-0.021098
-0.0213401
-0.0216265
-0.0219379
-0.0222015
-0.02243
-0.022674
-0.0229749
-0.0233238
-0.0237332
-0.024225
-0.0246953
-0.0249993
-0.0251831
-0.0254058
-0.0256994
-0.0260083
-0.0263159
-0.0266804
-0.0271194
-0.0275781
-0.0279938
-0.0283543
-0.0287283
-0.0291282
-0.029547
-0.0299685
-0.0303804
-0.0307781
-0.0312169
-0.0316752
-0.0321095
-0.0325524
-0.0330227
-0.0334831
-0.0339182
-0.0343792
-0.0348472
-0.035333
-0.035797
-0.03629
-0.0367934
-0.0373142
-0.0378114
-0.0383171
-0.0388409
-0.0394106
-0.0400096
-0.0405793
-0.0411686
-0.0417209
-0.0423332
-0.0429337
-0.0435528
-0.0442102
-0.0448422
-0.0454929
-0.0461534
-0.0467719
-0.0474759
-0.048139
-0.0487185
-0.0494321
-0.00139894
-0.00354229
-0.00841539
-0.0132573
-0.0160095
-0.0165437
-0.016027
-0.0155689
-0.0155916
-0.0159711
-0.0163655
-0.0165663
-0.0165836
-0.0165523
-0.0166476
-0.0169123
-0.0172139
-0.0174346
-0.0175097
-0.0174711
-0.0174865
-0.0176182
-0.0177599
-0.0178733
-0.0180101
-0.0181725
-0.0183259
-0.0185017
-0.0187488
-0.0190257
-0.0192879
-0.0195483
-0.0198031
-0.0200314
-0.0202773
-0.0205605
-0.0208439
-0.0210962
-0.0213396
-0.0216255
-0.021936
-0.0222
-0.0224298
-0.022674