/*--------------------------------*- C++ -*----------------------------------*\
| =========                 |                                                 |
| \\      /  F ield         | OpenFOAM: The Open Source CFD Toolbox           |
|  \\    /   O peration     | Version:  2506                                  |
|   \\  /    A nd           | Website:  www.openfoam.com                      |
|    \\/     M anipulation  |                                                 |
\*---------------------------------------------------------------------------*/
FoamFile
{
    version     2.0;
    format      ascii;
    arch        "LSB;label=32;scalar=64";
    class       surfaceScalarField;
    location    "9.75";
    object      phi;
}
// * * * * * * * * * * * * * * * * * * * * * * * * * * * * * * * * * * * * * //

dimensions      [0 3 -1 0 0 0 0];

oriented        oriented;

internalField   nonuniform List<scalar> 
19000
(
1.24312e-06
5.81437e-07
1.06547e-06
-1.7395e-08
1.07682e-06
-4.85298e-07
1.25215e-06
1.3879e-06
1.202e-06
1.22127e-06
1.05834e-06
-3.20103e-07
1.16449e-06
1.85706e-07
1.12545e-06
3.34982e-07
1.13343e-06
2.60056e-07
1.17103e-06
1.03951e-06
1.13056e-06
1.77165e-07
1.15362e-06
4.18364e-07
1.15494e-06
1.85712e-07
1.15131e-06
4.67918e-07
1.1392e-06
3.83278e-07
1.13174e-06
4.09145e-07
1.13525e-06
2.34493e-07
1.13465e-06
1.60511e-07
1.1412e-06
4.42417e-08
4.50154e-08
1.11632e-06
1.30173e-06
5.03972e-07
1.11533e-06
1.69006e-07
1.13251e-06
-5.02478e-07
1.31855e-06
1.20186e-06
1.26458e-06
1.27523e-06
1.11446e-06
-1.69982e-07
1.22417e-06
7.60013e-08
1.17977e-06
3.79382e-07
1.18807e-06
2.5175e-07
1.24016e-06
9.87418e-07
1.19394e-06
2.23384e-07
1.22002e-06
3.92284e-07
1.2161e-06
1.89635e-07
1.22157e-06
4.62449e-07
1.19422e-06
4.10622e-07
1.20414e-06
3.99231e-07
1.18555e-06
2.53081e-07
1.20702e-06
1.39043e-07
1.18621e-06
6.50523e-08
3.05206e-08
1.2007e-06
1.36161e-06
4.25151e-07
1.17701e-06
3.536e-07
1.18958e-06
-5.15043e-07
1.38463e-06
1.00681e-06
1.33442e-06
1.32544e-06
1.18056e-06
-1.61248e-08
1.28482e-06
-2.82602e-08
1.25226e-06
4.11945e-07
1.24593e-06
2.58083e-07
1.32046e-06
9.12889e-07
1.26459e-06
2.79246e-07
1.29391e-06
3.62967e-07
1.28023e-06
2.03319e-07
1.29479e-06
4.47886e-07
1.25922e-06
4.4619e-07
1.2678e-06
3.90658e-07
1.24938e-06
2.71501e-07
1.26034e-06
1.28082e-07
1.24994e-06
7.54459e-08
3.31821e-08
1.24728e-06
1.42301e-06
3.46246e-07
1.25271e-06
5.23899e-07
1.25174e-06
-5.14071e-07
1.45006e-06
8.0848e-07
1.40883e-06
1.36668e-06
1.25856e-06
1.34148e-07
1.34853e-06
-1.18237e-07
1.33855e-06
4.21932e-07
1.30972e-06
2.86911e-07
1.39732e-06
8.25291e-07
1.3394e-06
3.37162e-07
1.36015e-06
3.42217e-07
1.34476e-06
2.18712e-07
1.35734e-06
4.35303e-07
1.32929e-06
4.74243e-07
1.32684e-06
3.93104e-07
1.31458e-06
2.83762e-07
1.3156e-06
1.27057e-07
1.30986e-06
8.11918e-08
3.94568e-08
1.30358e-06
1.48475e-06
2.69851e-07
1.3431e-06
6.65545e-07
1.3186e-06
-4.89563e-07
1.50957e-06
6.1751e-07
1.48454e-06
1.3917e-06
1.34809e-06
2.70602e-07
1.41362e-06
-1.83767e-07
1.42776e-06
4.07795e-07
1.38044e-06
3.34226e-07
1.46202e-06
7.43709e-07
1.41564e-06
3.83548e-07
1.41999e-06
3.37867e-07
1.40736e-06
2.31338e-07
1.41474e-06
4.27923e-07
1.39737e-06
4.91619e-07
1.38944e-06
4.01028e-07
1.37926e-06
2.93944e-07
1.37644e-06
1.29875e-07
1.37057e-06
8.70684e-08
4.63487e-08
1.36367e-06
1.54569e-06
1.99841e-07
1.44353e-06
7.677e-07
1.38967e-06
-4.35701e-07
1.56016e-06
4.47019e-07
1.55855e-06
1.3933e-06
1.44471e-06
3.84449e-07
1.47854e-06
-2.17602e-07
1.50785e-06
3.78488e-07
1.45749e-06
3.8458e-07
1.51948e-06
6.81722e-07
1.49119e-06
4.11835e-07
1.48137e-06
3.47692e-07
1.46942e-06
2.43293e-07
1.47339e-06
4.23948e-07
1.46407e-06
5.00935e-07
1.45692e-06
4.08179e-07
1.44788e-06
3.02987e-07
1.44317e-06
1.34586e-07
1.43683e-06
9.34037e-08
5.45882e-08
1.42859e-06
1.60562e-06
1.4044e-07
1.54582e-06
8.275e-07
1.46559e-06
-3.5547e-07
1.60423e-06
3.08378e-07
1.6294e-06
1.36813e-06
1.54241e-06
4.71437e-07
1.54357e-06
-2.18759e-07
1.57578e-06
3.46275e-07
1.53783e-06
4.22528e-07
1.57841e-06
6.41145e-07
1.56487e-06
4.25374e-07
1.54825e-06
3.64315e-07
1.53431e-06
2.57229e-07
1.53633e-06
4.21929e-07
1.53255e-06
5.04713e-07
1.52905e-06
4.11685e-07
1.52213e-06
3.09905e-07
1.51625e-06
1.40468e-07
1.50963e-06
1.00021e-07
6.44663e-08
1.49975e-06
1.66589e-06
9.46831e-08
1.64316e-06
8.50229e-07
1.54803e-06
-2.60346e-07
1.64874e-06
2.07675e-07
1.69754e-06
1.31932e-06
1.63723e-06
5.31747e-07
1.61122e-06
-1.92747e-07
1.6375e-06
3.19998e-07
1.6174e-06
4.42633e-07
1.64255e-06
6.15993e-07
1.63739e-06
4.30534e-07
1.62035e-06
3.81356e-07
1.60433e-06
2.73246e-07
1.6048e-06
4.21464e-07
1.60452e-06
5.04987e-07
1.60499e-06
4.11217e-07
1.60102e-06
3.13874e-07
1.59479e-06
1.46694e-07
1.58834e-06
1.06473e-07
7.56643e-08
1.57714e-06
1.72897e-06
6.32839e-08
1.73344e-06
8.45766e-07
1.63793e-06
-1.64837e-07
1.70113e-06
1.44471e-07
1.76484e-06
1.25562e-06
1.7281e-06
5.68487e-07
1.68445e-06
-1.49099e-07
1.70145e-06
3.03001e-07
1.6945e-06
4.49581e-07
1.71152e-06
5.98972e-07
1.71107e-06
4.30986e-07
1.69687e-06
3.9555e-07
1.67999e-06
2.90127e-07
1.67909e-06
4.22369e-07
1.68066e-06
5.03417e-07
1.68412e-06
4.07749e-07
1.68329e-06
3.14705e-07
1.67753e-06
1.52461e-07
1.67194e-06
1.12062e-07
8.73486e-08
1.66025e-06
1.79737e-06
4.46349e-08
1.81862e-06
8.24514e-07
1.73406e-06
-8.02715e-08
1.76587e-06
1.1266e-07
1.83396e-06
1.18752e-06
1.81586e-06
5.86586e-07
1.76459e-06
-9.78237e-08
1.77333e-06
2.94262e-07
1.77133e-06
4.51576e-07
1.78496e-06
5.85345e-07
1.78841e-06
4.27529e-07
1.778e-06
4.05962e-07
1.7613e-06
3.06825e-07
1.75928e-06
4.24389e-07
1.76164e-06
5.0106e-07
1.76686e-06
4.02531e-07
1.7688e-06
3.12763e-07
1.76392e-06
1.57343e-07
1.75968e-06
1.16301e-07
9.85286e-08
1.7485e-06
1.87258e-06
3.58004e-08
1.90217e-06
7.94926e-07
1.8339e-06
-1.20002e-08
1.84369e-06
1.02868e-07
1.90771e-06
1.12351e-06
1.9024e-06
5.91898e-07
1.85114e-06
-4.65628e-08
1.8548e-06
2.90601e-07
1.85206e-06
4.54319e-07
1.86408e-06
5.73319e-07
1.87121e-06
4.20404e-07
1.86429e-06
4.12879e-07
1.8484e-06
3.22711e-07
1.84566e-06
4.27131e-07
1.84837e-06
4.98349e-07
1.85432e-06
3.9658e-07
1.85834e-06
3.08751e-07
1.85427e-06
1.61407e-07
1.85135e-06
1.19226e-07
1.08493e-07
1.84138e-06
1.95493e-06
3.37137e-08
1.98714e-06
7.62714e-07
1.93544e-06
3.97017e-08
1.9328e-06
1.05506e-07
1.98803e-06
1.06827e-06
1.98992e-06
5.90016e-07
1.94292e-06
4.32619e-10
1.94481e-06
2.88714e-07
1.93991e-06
4.59216e-07
1.95055e-06
5.62678e-07
1.96031e-06
4.1065e-07
1.95599e-06
4.17196e-07
1.94132e-06
3.37375e-07
1.9384e-06
4.30054e-07
1.94147e-06
4.95282e-07
1.94746e-06
3.90585e-07
1.95268e-06
3.03529e-07
1.94908e-06
1.65011e-07
1.94698e-06
1.21324e-07
1.16962e-07
1.93851e-06
2.04399e-06
3.59113e-08
2.07562e-06
7.31088e-07
2.03803e-06
7.72854e-08
2.0304e-06
1.13142e-07
2.07556e-06
1.0231e-06
2.08041e-06
5.85175e-07
2.03912e-06
4.17229e-08
2.04146e-06
2.86366e-07
2.03579e-06
4.64886e-07
2.04497e-06
5.53504e-07
2.05578e-06
3.99839e-07
2.05298e-06
4.19994e-07
2.03982e-06
3.50533e-07
2.03727e-06
4.32602e-07
2.04087e-06
4.91684e-07
2.04651e-06
3.84952e-07
2.05209e-06
2.97947e-07
2.04854e-06
1.68559e-07
2.04662e-06
1.23242e-07
1.24001e-07
2.03958e-06
2.13924e-06
4.06726e-08
2.1689e-06
7.01429e-07
2.14213e-06
1.04055e-07
2.13394e-06
1.21334e-07
2.16997e-06
9.87073e-07
2.1753e-06
5.7984e-07
2.13954e-06
7.74896e-08
2.14323e-06
2.82667e-07
2.13874e-06
4.69381e-07
2.14656e-06
5.45687e-07
2.1571e-06
3.89295e-07
2.15492e-06
4.22173e-07
2.14344e-06
3.62015e-07
2.14169e-06
4.34352e-07
2.14594e-06
4.87428e-07
2.15106e-06
3.79837e-07
2.1563e-06
2.92708e-07
2.15253e-06
1.72329e-07
2.15026e-06
1.25513e-07
1.29874e-07
2.14438e-06
2.24033e-06
4.68306e-08
2.26772e-06
6.74036e-07
2.24857e-06
1.2321e-07
2.24173e-06
1.28177e-07
2.2706e-06
9.58203e-07
2.27544e-06
5.74992e-07
2.24441e-06
1.08528e-07
2.24931e-06
2.77767e-07
2.24722e-06
4.71465e-07
2.25392e-06
5.38986e-07
2.26351e-06
3.79704e-07
2.2614e-06
4.24288e-07
2.25165e-06
3.71768e-07
2.25095e-06
4.35047e-07
2.25586e-06
4.8252e-07
2.26052e-06
3.75182e-07
2.26496e-06
2.88263e-07
2.26086e-06
1.76433e-07
2.25794e-06
1.28425e-07
1.34923e-07
2.2529e-06
2.34715e-06
5.3556e-08
2.37244e-06
6.48744e-07
2.35822e-06
1.3743e-07
2.35304e-06
1.33355e-07
2.37694e-06
9.34311e-07
2.38121e-06
5.70715e-07
2.3541e-06
1.35639e-07
2.35955e-06
2.72317e-07
2.36016e-06
4.70856e-07
2.36593e-06
5.33222e-07
2.37441e-06
3.7122e-07
2.37212e-06
4.26576e-07
2.36403e-06
3.79855e-07
2.36456e-06
4.34523e-07
2.37002e-06
4.77058e-07
2.37443e-06
3.70772e-07
2.37792e-06
2.84771e-07
2.37348e-06
1.8088e-07
2.36988e-06
1.3202e-07
1.39473e-07
2.36533e-06
2.4597e-06
6.02475e-08
2.48316e-06
6.2529e-07
2.47187e-06
1.48714e-07
2.46794e-06
1.37288e-07
2.48878e-06
9.13475e-07
2.49274e-06
5.66752e-07
2.46901e-06
1.59367e-07
2.47432e-06
2.67003e-07
2.47724e-06
4.67938e-07
2.48206e-06
5.28403e-07
2.48954e-06
3.63744e-07
2.48704e-06
4.29069e-07
2.48046e-06
3.86444e-07
2.48234e-06
4.32636e-07
2.48824e-06
4.71162e-07
2.49267e-06
3.66345e-07
2.49532e-06
2.82115e-07
2.49052e-06
1.85687e-07
2.48637e-06
1.36166e-07
1.43766e-07
2.48208e-06
2.57804e-06
6.65015e-08
2.59991e-06
6.03415e-07
2.59023e-06
1.58403e-07
2.58688e-06
1.40632e-07
2.60618e-06
8.94173e-07
2.6101e-06
5.62836e-07
2.58946e-06
1.80004e-07
2.59416e-06
2.62304e-07
2.59872e-06
4.63377e-07
2.60241e-06
5.24716e-07
2.60903e-06
3.57129e-07
2.60645e-06
4.31641e-07
2.60112e-06
3.91779e-07
2.60453e-06
4.29224e-07
2.61076e-06
4.64933e-07
2.61538e-06
3.61726e-07
2.61747e-06
2.80019e-07
2.61224e-06
1.90919e-07
2.60773e-06
1.40683e-07
1.47913e-07
2.60358e-06
2.70224e-06
7.20904e-08
2.72282e-06
5.82837e-07
2.71387e-06
1.67349e-07
2.71045e-06
1.4405e-07
2.72943e-06
8.75196e-07
2.73346e-06
5.58806e-07
2.71569e-06
1.97775e-07
2.71948e-06
2.58513e-07
2.72505e-06
4.5781e-07
2.7274e-06
5.22367e-07
2.73328e-06
3.5125e-07
2.73088e-06
4.34035e-07
2.72649e-06
3.9617e-07
2.73153e-06
4.24181e-07
2.73802e-06
4.58444e-07
2.74282e-06
3.5693e-07
2.74471e-06
2.78129e-07
2.73897e-06
1.96653e-07
2.73422e-06
1.45441e-07
1.51863e-07
2.73027e-06
2.83244e-06
7.69155e-08
2.85204e-06
5.63243e-07
2.84332e-06
1.76068e-07
2.83922e-06
1.48147e-07
2.85887e-06
8.55543e-07
2.86306e-06
5.54618e-07
2.84783e-06
2.1301e-07
2.85048e-06
2.55857e-07
2.8566e-06
4.51689e-07
2.85756e-06
5.21406e-07
2.86283e-06
3.45984e-07
2.86097e-06
4.35899e-07
2.85713e-06
4.00001e-07
2.86376e-06
4.17551e-07
2.87045e-06
4.5176e-07
2.87521e-06
3.52169e-07
2.87726e-06
2.76082e-07
2.87105e-06
2.02863e-07
2.86606e-06
1.50432e-07
1.55415e-07
2.8625e-06
2.96887e-06
8.09445e-08
2.98772e-06
5.4439e-07
2.979e-06
1.84784e-07
2.97373e-06
1.53423e-07
2.99484e-06
8.34429e-07
2.99913e-06
5.50328e-07
2.98599e-06
2.26155e-07
2.98732e-06
2.54527e-07
2.99373e-06
4.45274e-07
2.9935e-06
5.21643e-07
2.99827e-06
3.41209e-07
2.99732e-06
4.36849e-07
2.99362e-06
4.03706e-07
3.00158e-06
4.09593e-07
3.00842e-06
4.44911e-07
3.0128e-06
3.47798e-07
3.01531e-06
2.73567e-07
3.00885e-06
2.09324e-07
3.0035e-06
1.55779e-07
1.58304e-07
3.00061e-06
3.11179e-06
8.41599e-08
3.12998e-06
5.26201e-07
3.12135e-06
1.93417e-07
3.11455e-06
1.60223e-07
3.1376e-06
8.11372e-07
3.14185e-06
5.46081e-07
3.13036e-06
2.37646e-07
3.13029e-06
2.54592e-07
3.13687e-06
4.38699e-07
3.13579e-06
5.2272e-07
3.14014e-06
3.36863e-07
3.14045e-06
4.36539e-07
3.13648e-06
4.0767e-07
3.14535e-06
4.00722e-07
3.15239e-06
4.37875e-07
3.15598e-06
3.44212e-07
3.15915e-06
2.70396e-07
3.15286e-06
2.15613e-07
3.14692e-06
1.61722e-07
1.60324e-07
3.1449e-06
3.26154e-06
8.65316e-08
3.27895e-06
5.08787e-07
3.27073e-06
2.01644e-07
3.26224e-06
1.68714e-07
3.28738e-06
7.86228e-07
3.29139e-06
5.42072e-07
3.28123e-06
2.47809e-07
3.27988e-06
2.55933e-07
3.28654e-06
4.32046e-07
3.28503e-06
5.24223e-07
3.2889e-06
3.32995e-07
3.29072e-06
4.34719e-07
3.28625e-06
4.12142e-07
3.29557e-06
3.91406e-07
3.30288e-06
4.30558e-07
3.30538e-06
3.41719e-07
3.30918e-06
2.66593e-07
3.30359e-06
2.21197e-07
3.29683e-06
1.68484e-07
1.61526e-07
3.29563e-06
3.41845e-06
8.80111e-08
3.43487e-06
4.92367e-07
3.42749e-06
2.09027e-07
3.41729e-06
1.78908e-07
3.44441e-06
7.59117e-07
3.44799e-06
5.38488e-07
3.43893e-06
2.56866e-07
3.43661e-06
2.5826e-07
3.44327e-06
4.25384e-07
3.44173e-06
5.25766e-07
3.44495e-06
3.29769e-07
3.44841e-06
4.3126e-07
3.44337e-06
4.17178e-07
3.45269e-06
3.82094e-07
3.46047e-06
4.22779e-07
3.46172e-06
3.4047e-07
3.46585e-06
2.62461e-07
3.46154e-06
2.25505e-07
3.45388e-06
1.76147e-07
1.62313e-07
3.45309e-06
3.58288e-06
8.85436e-08
3.59807e-06
4.77173e-07
3.59194e-06
2.15159e-07
3.58013e-06
1.90717e-07
3.60894e-06
7.30307e-07
3.612e-06
5.35428e-07
3.60385e-06
2.65012e-07
3.60092e-06
2.61191e-07
3.60751e-06
4.18801e-07
3.60626e-06
5.27013e-07
3.60864e-06
3.27394e-07
3.61373e-06
4.26165e-07
3.60825e-06
4.22656e-07
3.61714e-06
3.73203e-07
3.62563e-06
4.14292e-07
3.62567e-06
3.4043e-07
3.62962e-06
2.58505e-07
3.62705e-06
2.28083e-07
3.61873e-06
1.84468e-07
1.63426e-07
3.61761e-06
3.75516e-06
8.80876e-08
3.76896e-06
4.63375e-07
3.76438e-06
2.19743e-07
3.7511e-06
2.03996e-07
3.78129e-06
7.00119e-07
3.78385e-06
5.32865e-07
3.77637e-06
2.72494e-07
3.77324e-06
2.64321e-07
3.77962e-06
4.12416e-07
3.77893e-06
5.27708e-07
3.78029e-06
3.26027e-07
3.78689e-06
4.19565e-07
3.78123e-06
4.28322e-07
3.7893e-06
3.6513e-07
3.79874e-06
4.04854e-07
3.7978e-06
3.41363e-07
3.80098e-06
2.55334e-07
3.80034e-06
2.28713e-07
3.79196e-06
1.92853e-07
1.65705e-07
3.78968e-06
3.93565e-06
8.66305e-08
3.94796e-06
4.51065e-07
3.9451e-06
2.22595e-07
3.93054e-06
2.18558e-07
3.96177e-06
6.68891e-07
3.964e-06
5.30637e-07
3.95685e-06
2.79643e-07
3.95389e-06
2.6728e-07
3.95997e-06
4.06338e-07
3.95997e-06
5.27702e-07
3.96027e-06
3.2573e-07
3.96816e-06
4.11672e-07
3.96264e-06
4.33849e-07
3.96953e-06
3.58234e-07
3.98007e-06
3.94316e-07
3.97858e-06
3.42852e-07
3.9804e-06
2.53515e-07
3.98165e-06
2.27466e-07
3.97396e-06
2.00544e-07
1.69651e-07
3.97001e-06
4.12469e-06
8.41937e-08
4.13547e-06
4.40278e-07
4.13445e-06
2.23621e-07
4.11884e-06
2.34165e-07
4.15075e-06
6.36982e-07
4.15292e-06
5.28467e-07
4.14571e-06
2.86853e-07
4.14322e-06
2.69768e-07
4.14894e-06
4.00623e-07
4.14967e-06
5.26969e-07
4.14893e-06
3.26474e-07
4.15788e-06
4.02718e-07
4.15282e-06
4.38915e-07
4.15826e-06
3.52791e-07
4.1699e-06
3.82675e-07
4.16836e-06
3.44396e-07
4.16849e-06
2.53377e-07
4.17115e-06
2.24805e-07
4.165e-06
2.06697e-07
1.75299e-07
4.15935e-06
4.32267e-06
8.08249e-08
4.33193e-06
4.31019e-07
4.33276e-06
2.22794e-07
4.31641e-06
2.50509e-07
4.34861e-06
6.04789e-07
4.35108e-06
5.25996e-07
4.34339e-06
2.94534e-07
4.34159e-06
2.71571e-07
4.34697e-06
3.95242e-07
4.34836e-06
5.2558e-07
4.34665e-06
3.28185e-07
4.35646e-06
3.92913e-07
4.35213e-06
4.43241e-07
4.35593e-06
3.48987e-07
4.3685e-06
3.70111e-07
4.36744e-06
3.45453e-07
4.3658e-06
2.55016e-07
4.36915e-06
2.2146e-07
4.36524e-06
2.10603e-07
1.82145e-07
4.3584e-06
4.53002e-06
7.65827e-08
4.53775e-06
4.23286e-07
4.54039e-06
2.20157e-07
4.52369e-06
2.67201e-07
4.55573e-06
5.72758e-07
4.55891e-06
5.22813e-07
4.55038e-06
3.03068e-07
4.54936e-06
2.72586e-07
4.55454e-06
3.90059e-07
4.55645e-06
5.23674e-07
4.55386e-06
3.3077e-07
4.56433e-06
3.82444e-07
4.56099e-06
4.46581e-07
4.56305e-06
3.46932e-07
4.57622e-06
3.56936e-07
4.57613e-06
3.45546e-07
4.57279e-06
2.58354e-07
4.57614e-06
2.1811e-07
4.57469e-06
2.12059e-07
1.89127e-07
4.5677e-06
4.74717e-06
7.15251e-08
4.7534e-06
4.17058e-07
4.7577e-06
2.15853e-07
4.74115e-06
2.83751e-07
4.77252e-06
5.41391e-07
4.77686e-06
5.18472e-07
4.76719e-06
3.12736e-07
4.76692e-06
2.72855e-07
4.77213e-06
3.8485e-07
4.77442e-06
5.2139e-07
4.77103e-06
3.34155e-07
4.78198e-06
3.71492e-07
4.77988e-06
4.48688e-07
4.78008e-06
3.46727e-07
4.79355e-06
3.43464e-07
4.79468e-06
3.44417e-07
4.79e-06
2.63038e-07
4.7927e-06
2.15406e-07
4.79354e-06
2.1122e-07
1.95123e-07
4.78755e-06
4.97462e-06
6.57057e-08
4.9794e-06
4.12276e-07
4.9851e-06
2.10156e-07
4.96928e-06
2.99562e-07
4.99942e-06
5.11258e-07
5.00538e-06
5.1251e-07
4.99444e-06
3.23679e-07
4.99469e-06
2.72604e-07
5.00022e-06
3.79316e-07
5.0028e-06
5.18814e-07
4.99864e-06
3.38316e-07
5.00989e-06
3.60244e-07
5.00928e-06
4.49291e-07
5.00761e-06
3.48397e-07
5.02091e-06
3.30165e-07
5.02364e-06
3.41691e-07
5.01802e-06
2.68654e-07
5.01955e-06
2.1388e-07
5.02207e-06
2.08702e-07
1.99153e-07
5.01803e-06
5.21284e-06
5.91796e-08
5.21631e-06
4.08809e-07
5.22298e-06
2.03485e-07
5.2086e-06
3.1394e-07
5.23687e-06
4.82988e-07
5.24492e-06
5.04461e-07
5.23272e-06
3.35878e-07
5.2331e-06
2.72229e-07
5.23927e-06
3.73149e-07
5.24214e-06
5.15935e-07
5.23721e-06
3.43249e-07
5.24852e-06
3.4894e-07
5.24972e-06
4.4809e-07
5.24624e-06
3.51875e-07
5.2588e-06
3.17601e-07
5.26352e-06
3.36977e-07
5.25737e-06
2.74798e-07
5.25739e-06
2.1386e-07
5.26082e-06
2.05272e-07
2.00803e-07
5.25917e-06
5.46235e-06
5.20192e-08
5.46473e-06
4.06431e-07
5.47182e-06
1.96396e-07
5.45966e-06
3.26093e-07
5.48537e-06
4.57285e-07
5.49594e-06
4.93887e-07
5.48267e-06
3.49142e-07
5.48266e-06
2.72244e-07
5.48971e-06
3.66101e-07
5.49303e-06
5.12613e-07
5.4873e-06
3.48982e-07
5.49838e-06
3.37858e-07
5.50169e-06
4.44782e-07
5.49658e-06
3.56985e-07
5.50783e-06
3.06347e-07
5.51478e-06
3.30029e-07
5.50857e-06
2.81006e-07
5.50692e-06
2.15516e-07
5.51053e-06
2.01655e-07
2.00244e-07
5.51109e-06
5.72365e-06
4.43232e-08
5.72527e-06
4.04819e-07
5.73212e-06
1.89541e-07
5.72303e-06
3.35183e-07
5.74544e-06
4.34873e-07
5.75871e-06
4.80625e-07
5.74491e-06
3.62934e-07
5.74394e-06
2.73216e-07
5.75202e-06
3.58023e-07
5.75601e-06
5.08622e-07
5.74948e-06
3.55515e-07
5.76002e-06
3.27316e-07
5.76563e-06
4.39171e-07
5.75932e-06
3.63293e-07
5.7686e-06
2.97065e-07
5.77783e-06
3.20801e-07
5.77216e-06
2.86682e-07
5.76873e-06
2.18942e-07
5.77201e-06
1.98373e-07
1.97999e-07
5.77426e-06
5.99729e-06
3.6226e-08
5.99855e-06
4.03556e-07
6.00448e-06
1.8361e-07
5.99928e-06
3.40391e-07
6.0178e-06
4.16354e-07
6.03351e-06
4.64907e-07
6.02003e-06
3.76414e-07
6.01759e-06
2.75662e-07
6.02668e-06
3.48932e-07
6.03163e-06
5.03668e-07
6.02436e-06
3.6279e-07
6.03401e-06
3.17667e-07
6.04197e-06
4.31204e-07
6.03513e-06
3.70137e-07
6.04178e-06
2.90419e-07
6.05303e-06
3.09549e-07
6.0487e-06
2.91014e-07
6.04353e-06
2.24113e-07
6.04594e-06
1.95962e-07
1.94548e-07
6.04939e-06
6.28382e-06
2.78945e-08
6.28522e-06
4.02154e-07
6.28955e-06
1.79279e-07
6.28889e-06
3.41057e-07
6.30325e-06
4.01985e-07
6.32075e-06
4.47414e-07
6.30859e-06
3.88568e-07
6.30432e-06
2.79931e-07
6.3142e-06
3.39052e-07
6.32043e-06
4.97444e-07
6.31256e-06
3.70655e-07
6.32096e-06
3.09268e-07
6.3312e-06
4.2097e-07
6.3246e-06
3.76737e-07
6.32816e-06
2.86855e-07
6.34076e-06
2.96952e-07
6.33868e-06
2.93093e-07
6.33206e-06
2.30731e-07
6.33305e-06
1.94968e-07
1.90334e-07
6.33727e-06
6.58383e-06
1.9531e-08
6.58592e-06
4.00071e-07
6.58806e-06
1.77135e-07
6.59224e-06
3.36875e-07
6.60273e-06
3.91501e-07
6.62096e-06
4.29181e-07
6.61111e-06
3.98415e-07
6.60494e-06
2.86102e-07
6.61515e-06
3.28844e-07
6.62293e-06
4.89669e-07
6.61474e-06
3.78839e-07
6.62154e-06
3.02473e-07
6.63381e-06
4.08694e-07
6.62821e-06
3.82338e-07
6.62861e-06
2.86454e-07
6.6416e-06
2.83962e-07
6.6424e-06
2.92292e-07
6.63507e-06
2.3806e-07
6.6342e-06
1.95847e-07
1.8592e-07
6.63861e-06
6.89796e-06
1.13598e-08
6.9013e-06
3.96737e-07
6.90081e-06
1.77621e-07
6.90964e-06
3.28048e-07
6.91713e-06
3.84011e-07
6.93486e-06
4.11451e-07
6.92809e-06
4.05184e-07
6.92025e-06
2.93934e-07
6.93019e-06
3.18913e-07
6.93966e-06
4.80194e-07
6.93153e-06
3.8697e-07
6.93646e-06
2.97546e-07
6.9504e-06
3.94754e-07
6.94647e-06
3.86267e-07
6.94396e-06
2.88965e-07
6.95624e-06
2.71681e-07
6.96022e-06
2.88313e-07
6.95313e-06
2.45149e-07
6.95032e-06
1.98653e-07
1.82072e-07
6.95417e-06
7.22687e-06
3.62758e-09
7.23202e-06
3.91587e-07
7.22865e-06
1.80994e-07
7.24143e-06
3.15264e-07
7.24727e-06
3.78176e-07
7.26324e-06
3.95474e-07
7.26002e-06
4.08402e-07
7.25103e-06
3.02929e-07
7.26003e-06
3.09911e-07
7.27117e-06
4.69051e-07
7.26354e-06
3.94605e-07
7.26648e-06
2.94606e-07
7.2816e-06
3.79632e-07
7.27984e-06
3.88027e-07
7.27496e-06
2.93849e-07
7.28541e-06
2.61234e-07
7.29248e-06
2.81236e-07
7.28668e-06
2.50954e-07
7.28225e-06
2.03077e-07
1.79505e-07
7.28482e-06
7.57127e-06
-3.41484e-09
7.57875e-06
3.84106e-07
7.57244e-06
1.87306e-07
7.5881e-06
2.99598e-07
7.59384e-06
3.72442e-07
7.60704e-06
3.82266e-07
7.60738e-06
4.08064e-07
7.59802e-06
3.12294e-07
7.60551e-06
3.0242e-07
7.61804e-06
4.56514e-07
7.61144e-06
4.01214e-07
7.61239e-06
2.93647e-07
7.62806e-06
3.63967e-07
7.62885e-06
3.8724e-07
7.62231e-06
3.00381e-07
7.6301e-06
2.53446e-07
7.6397e-06
2.71637e-07
7.63611e-06
2.5455e-07
7.63067e-06
2.08509e-07
1.78597e-07
7.63158e-06
7.93192e-06
-9.51869e-09
7.94214e-06
3.73882e-07
7.93307e-06
1.96376e-07
7.95027e-06
2.824e-07
7.9574e-06
3.65313e-07
7.96726e-06
3.72405e-07
7.97065e-06
4.04671e-07
7.96186e-06
3.21084e-07
7.96746e-06
2.96824e-07
7.98095e-06
4.43018e-07
7.97579e-06
4.06376e-07
7.97496e-06
2.94474e-07
7.99052e-06
3.48409e-07
7.99399e-06
3.83773e-07
7.98672e-06
3.07655e-07
7.9914e-06
2.48765e-07
8.00252e-06
2.60515e-07
8.00182e-06
2.55247e-07
7.99615e-06
2.14179e-07
1.79339e-07
7.99541e-06
8.30961e-06
-1.44474e-08
8.32285e-06
3.60641e-07
8.31141e-06
2.07817e-07
8.32874e-06
2.65074e-07
8.33844e-06
3.55607e-07
8.3449e-06
3.65945e-07
8.35044e-06
3.99131e-07
8.34315e-06
3.28376e-07
8.34679e-06
2.93188e-07
8.36067e-06
4.29134e-07
8.35719e-06
4.09858e-07
8.35484e-06
2.96821e-07
8.36979e-06
3.33462e-07
8.37574e-06
3.77818e-07
8.36879e-06
3.14612e-07
8.37034e-06
2.47211e-07
8.38178e-06
2.49076e-07
8.38433e-06
2.52698e-07
8.3792e-06
2.19306e-07
1.81416e-07
8.37712e-06
8.7052e-06
-1.79875e-08
8.72159e-06
3.44255e-07
8.70835e-06
2.21057e-07
8.72441e-06
2.49009e-07
8.73743e-06
3.42585e-07
8.74109e-06
3.62292e-07
8.74753e-06
3.92692e-07
8.74241e-06
3.33495e-07
8.74434e-06
2.91253e-07
8.75794e-06
4.1554e-07
8.75615e-06
4.11641e-07
8.75263e-06
3.00344e-07
8.76647e-06
3.19619e-07
8.77475e-06
3.69541e-07
8.76906e-06
3.20307e-07
8.76799e-06
2.48273e-07
8.77847e-06
2.38597e-07
8.7842e-06
2.46969e-07
8.78041e-06
2.23096e-07
1.84376e-07
8.77745e-06
9.1196e-06
-1.99648e-08
9.13911e-06
3.24745e-07
9.12479e-06
2.35377e-07
9.13834e-06
2.35456e-07
9.15495e-06
3.25969e-07
9.15676e-06
3.60485e-07
9.16287e-06
3.86582e-07
9.16006e-06
3.36306e-07
9.16084e-06
2.90473e-07
9.17352e-06
4.02863e-07
9.17332e-06
4.11837e-07
9.16891e-06
3.04751e-07
9.18134e-06
3.07188e-07
9.19187e-06
3.59019e-07
9.18814e-06
3.2403e-07
9.18527e-06
2.51144e-07
9.1938e-06
2.30068e-07
9.20213e-06
2.38638e-07
9.20044e-06
2.24783e-07
1.87716e-07
9.1971e-06
9.55377e-06
-2.02711e-08
9.57619e-06
3.02319e-07
9.56165e-06
2.49915e-07
9.57173e-06
2.25383e-07
9.59169e-06
3.06008e-07
9.59281e-06
3.59366e-07
9.59739e-06
3.81999e-07
9.59657e-06
3.37131e-07
9.5969e-06
2.90139e-07
9.60844e-06
3.91324e-07
9.60975e-06
4.1053e-07
9.60492e-06
3.09577e-07
9.6157e-06
2.96411e-07
9.6281e-06
3.46617e-07
9.62684e-06
3.25291e-07
9.62311e-06
2.54876e-07
9.62913e-06
2.24043e-07
9.63895e-06
2.28818e-07
9.64e-06
2.23741e-07
1.90823e-07
9.63689e-06
1.00087e-05
-1.88855e-08
1.00336e-05
2.77454e-07
1.00199e-05
2.6359e-07
1.00258e-05
2.19558e-07
1.00483e-05
2.83481e-07
1.00499e-05
3.57734e-07
1.0052e-05
3.79892e-07
1.00526e-05
3.36555e-07
1.00535e-05
2.89255e-07
1.00642e-05
3.80649e-07
1.00668e-05
4.07898e-07
1.0062e-05
3.14403e-07
1.00709e-05
2.87459e-07
1.00848e-05
3.32769e-07
1.00861e-05
3.23949e-07
1.00823e-05
2.58657e-07
1.00858e-05
2.20554e-07
1.00958e-05
2.18798e-07
1.00997e-05
2.19906e-07
1.92922e-07
1.00976e-05
1.04857e-05
-1.59087e-08
1.05122e-05
2.50921e-07
1.05006e-05
2.75149e-07
1.05018e-05
2.18436e-07
1.05256e-05
2.59661e-07
1.05291e-05
3.54172e-07
1.05286e-05
3.80481e-07
1.05294e-05
3.35661e-07
1.05316e-05
2.87108e-07
1.05422e-05
3.70059e-07
1.05459e-05
4.04206e-07
1.05411e-05
3.19147e-07
1.05481e-05
2.80483e-07
1.05629e-05
3.17935e-07
1.05669e-05
3.1997e-07
1.05638e-05
2.61803e-07
1.05651e-05
2.19249e-07
1.05742e-05
2.09691e-07
1.05804e-05
2.13672e-07
1.93379e-07
1.058e-05
1.09857e-05
-1.15645e-08
1.10129e-05
2.23713e-07
1.10047e-05
2.83312e-07
1.10011e-05
2.22032e-07
1.10248e-05
2.36016e-07
1.1032e-05
3.46978e-07
1.10291e-05
3.83298e-07
1.10288e-05
3.36037e-07
1.1032e-05
2.83886e-07
1.10434e-05
3.58644e-07
1.10483e-05
3.99345e-07
1.10437e-05
3.23662e-07
1.10486e-05
2.75654e-07
1.10637e-05
3.02828e-07
1.10702e-05
3.13419e-07
1.10683e-05
2.6373e-07
1.1068e-05
2.19515e-07
1.10755e-05
2.02243e-07
1.10832e-05
2.05921e-07
1.91749e-07
1.10849e-05
1.151e-05
-6.20778e-09
1.15367e-05
1.9698e-07
1.15331e-05
2.86929e-07
1.15253e-05
2.29845e-07
1.1547e-05
2.14348e-07
1.15586e-05
3.35313e-07
1.15553e-05
3.86615e-07
1.15525e-05
3.38873e-07
1.15557e-05
2.80644e-07
1.15684e-05
3.46002e-07
1.15749e-05
3.92854e-07
1.1571e-05
3.27558e-07
1.15737e-05
2.72961e-07
1.15882e-05
2.88239e-07
1.15971e-05
3.04579e-07
1.15968e-05
2.63991e-07
1.15958e-05
2.20552e-07
1.16012e-05
1.96814e-07
1.16095e-05
1.9768e-07
1.8796e-07
1.16132e-05
1.20599e-05
-2.92756e-10
1.2085e-05
1.71858e-07
1.20868e-05
2.85168e-07
1.20757e-05
2.40917e-07
1.20935e-05
1.96558e-07
1.21098e-05
3.19025e-07
1.21079e-05
3.88528e-07
1.21025e-05
3.44243e-07
1.21043e-05
2.78816e-07
1.2118e-05
3.32384e-07
1.21266e-05
3.84195e-07
1.21238e-05
3.30375e-07
1.21246e-05
2.72137e-07
1.21379e-05
2.74945e-07
1.21486e-05
2.9388e-07
1.21503e-05
2.62357e-07
1.21493e-05
2.21552e-07
1.21528e-05
1.93265e-07
1.21605e-05
1.89958e-07
1.82354e-07
1.21661e-05
1.26366e-05
5.67512e-09
1.26592e-05
1.49332e-07
1.26665e-05
2.77817e-07
1.26537e-05
2.53753e-07
1.2666e-05
1.84192e-07
1.26863e-05
2.98749e-07
1.26875e-05
3.87344e-07
1.26802e-05
3.51515e-07
1.26796e-05
2.79472e-07
1.26934e-05
3.18516e-07
1.27044e-05
3.73186e-07
1.27033e-05
3.31527e-07
1.27028e-05
2.72662e-07
1.27142e-05
2.63556e-07
1.27262e-05
2.81872e-07
1.27297e-05
2.58782e-07
1.27294e-05
2.21921e-07
1.27316e-05
1.91015e-07
1.27381e-05
1.8348e-07
1.75717e-07
1.27447e-05
1.32414e-05
1.12365e-08
1.32607e-05
1.3005e-07
1.32731e-05
2.65402e-07
1.32604e-05
2.66465e-07
1.32665e-05
1.78054e-07
1.32892e-05
2.76088e-07
1.32948e-05
3.81649e-07
1.32866e-05
3.59795e-07
1.32832e-05
2.82841e-07
1.32962e-05
3.05478e-07
1.33094e-05
3.60029e-07
1.33104e-05
3.30476e-07
1.33092e-05
2.73891e-07
1.33184e-05
2.54388e-07
1.3331e-05
2.69285e-07
1.33365e-05
2.53245e-07
1.33371e-05
2.21377e-07
1.33388e-05
1.89283e-07
1.33439e-05
1.78382e-07
1.69028e-07
1.33506e-05
1.38754e-05
1.59995e-08
1.38911e-05
1.14322e-07
1.39075e-05
2.49025e-07
1.38965e-05
2.77427e-07
1.38967e-05
1.77873e-07
1.39197e-05
2.5312e-07
1.39303e-05
3.7105e-07
1.39224e-05
3.67658e-07
1.39168e-05
2.8845e-07
1.3928e-05
2.94298e-07
1.39429e-05
3.45144e-07
1.39464e-05
3.26917e-07
1.39452e-05
2.75104e-07
1.39522e-05
2.47423e-07
1.39645e-05
2.57007e-07
1.39719e-05
2.45854e-07
1.39735e-05
2.19762e-07
1.39751e-05
1.87626e-07
1.39793e-05
1.74214e-07
1.63109e-07
1.39852e-05
1.454e-05
1.96703e-08
1.45517e-05
1.02645e-07
1.45704e-05
2.30345e-07
1.45632e-05
2.84597e-07
1.45585e-05
1.82508e-07
1.45793e-05
2.32321e-07
1.4594e-05
3.56359e-07
1.45887e-05
3.72992e-07
1.45816e-05
2.95518e-07
1.45904e-05
2.85548e-07
1.46063e-05
3.29272e-07
1.46124e-05
3.20794e-07
1.46119e-05
2.75556e-07
1.46171e-05
2.42289e-07
1.46284e-05
2.45635e-07
1.46372e-05
2.37078e-07
1.46403e-05
2.16679e-07
1.4642e-05
1.85908e-07
1.46458e-05
1.70427e-07
1.5813e-07
1.46508e-05
1.52365e-05
2.20954e-08
1.52405e-05
9.85969e-08
1.52619e-05
2.08975e-07
1.52618e-05
2.84673e-07
1.52541e-05
1.90235e-07
1.52684e-05
2.18029e-07
1.52868e-05
3.37885e-07
1.52862e-05
3.73616e-07
1.5279e-05
3.02713e-07
1.52853e-05
2.79229e-07
1.53011e-05
3.13508e-07
1.53096e-05
3.12269e-07
1.53104e-05
2.74765e-07
1.53143e-05
2.38425e-07
1.53243e-05
2.35657e-07
1.53337e-05
2.27587e-07
1.53384e-05
2.11979e-07
1.53405e-05
1.83851e-07
1.5344e-05
1.66894e-07
1.53651e-07
1.53485e-05
1.59667e-05
2.27492e-08
1.5979e-05
8.62316e-08
1.60041e-05
1.83901e-07
1.59996e-05
2.89179e-07
1.59822e-05
2.07641e-07
1.5988e-05
2.12243e-07
1.60101e-05
3.1578e-07
1.60159e-05
3.67834e-07
1.60102e-05
3.08426e-07
1.60142e-05
2.75185e-07
1.6029e-05
2.98676e-07
1.60396e-05
3.01671e-07
1.60422e-05
2.72206e-07
1.60454e-05
2.35216e-07
1.6054e-05
2.27055e-07
1.60636e-05
2.18006e-07
1.60697e-05
2.05874e-07
1.60726e-05
1.80974e-07
1.60758e-05
1.63621e-07
1.49301e-07
1.60802e-05
1.67301e-05
2.32259e-08
1.67227e-05
9.3672e-08
1.67423e-05
1.64251e-07
1.67524e-05
2.79115e-07
1.67434e-05
2.16604e-07
1.67459e-05
2.09767e-07
1.6768e-05
2.93741e-07
1.67795e-05
3.56323e-07
1.67766e-05
3.1133e-07
1.67789e-05
2.72816e-07
1.67922e-05
2.85404e-07
1.68041e-05
2.89765e-07
1.68085e-05
2.67785e-07
1.68117e-05
2.32087e-07
1.6819e-05
2.19726e-07
1.68282e-05
2.08804e-07
1.68352e-05
1.98897e-07
1.68391e-05
1.76989e-07
1.68424e-05
1.60332e-07
1.45009e-07
1.68467e-05
1.75308e-05
2.2763e-08
1.75333e-05
9.12351e-08
1.75452e-05
1.52282e-07
1.75519e-05
2.72422e-07
1.75442e-05
2.24295e-07
1.75433e-05
2.10731e-07
1.75629e-05
2.74107e-07
1.75784e-05
3.40851e-07
1.75788e-05
3.10939e-07
1.75805e-05
2.71031e-07
1.75921e-05
2.73887e-07
1.76046e-05
2.77185e-07
1.7611e-05
2.61457e-07
1.76147e-05
2.28347e-07
1.76211e-05
2.13296e-07
1.76298e-05
2.00178e-07
1.76372e-05
1.91434e-07
1.76422e-05
1.72017e-07
1.76458e-05
1.56714e-07
1.40773e-07
1.76501e-05
1.8369e-05
2.21008e-08
1.83628e-05
9.74682e-08
1.83755e-05
1.3958e-07
1.83886e-05
2.59349e-07
1.83843e-05
2.28582e-07
1.83813e-05
2.13675e-07
1.83972e-05
2.58254e-07
1.8415e-05
3.23061e-07
1.84188e-05
3.07061e-07
1.84209e-05
2.69014e-07
1.84307e-05
2.6402e-07
1.84433e-05
2.64565e-07
1.84511e-05
2.5366e-07
1.84557e-05
2.23803e-07
1.84616e-05
2.07383e-07
1.84695e-05
1.92242e-07
1.84771e-05
1.83871e-07
1.84828e-05
1.66365e-07
1.84869e-05
1.52519e-07
1.36536e-07
1.84912e-05
1.92474e-05
2.10525e-08
1.92442e-05
1.00723e-07
1.92518e-05
1.32005e-07
1.92654e-05
2.45742e-07
1.92642e-05
2.29701e-07
1.92607e-05
2.17262e-07
1.92729e-05
2.45968e-07
1.9291e-05
3.04965e-07
1.9298e-05
3.00073e-07
1.9301e-05
2.66031e-07
1.93096e-05
2.55432e-07
1.93218e-05
2.52347e-07
1.93309e-05
2.44536e-07
1.93366e-05
2.18179e-07
1.93424e-05
2.01531e-07
1.93499e-05
1.84735e-07
1.93575e-05
1.76291e-07
1.93637e-05
1.60163e-07
1.93685e-05
1.47719e-07
1.32168e-07