/*--------------------------------*- C++ -*----------------------------------*\
| =========                 |                                                 |
| \\      /  F ield         | OpenFOAM: The Open Source CFD Toolbox           |
|  \\    /   O peration     | Version:  2506                                  |
|   \\  /    A nd           | Website:  www.openfoam.com                      |
|    \\/     M anipulation  |                                                 |
\*---------------------------------------------------------------------------*/
FoamFile
{
    version     2.0;
    format      ascii;
    arch        "LSB;label=32;scalar=64";
    class       volScalarField;
    location    "8.35";
    object      p;
}
// * * * * * * * * * * * * * * * * * * * * * * * * * * * * * * * * * * * * * //

dimensions      [0 2 -2 0 0 0 0];

internalField   nonuniform List<scalar> 
9600
(
4.65596e-10
0.0078411
0.0100095
0.00412952
0.00112632
0.00911096
0.010314
0.00871819
0.0104407
0.0133679
0.011772
0.0111228
0.0105191
0.0121238
0.0113895
0.0111584
0.0112139
0.0110119
0.0116895
0.0125693
3.84654e-06
0.00785177
0.0099793
0.0041062
0.00114583
0.00913052
0.0102851
0.00871554
0.0104363
0.0133457
0.0117678
0.0111244
0.0105293
0.0121142
0.0113994
0.0111545
0.0112291
0.0109975
0.0117081
0.0124745
7.90235e-06
0.00785878
0.00993642
0.00408551
0.00115882
0.0091484
0.0102539
0.00871646
0.0104289
0.0133297
0.0117694
0.0111264
0.0105424
0.0120981
0.0114227
0.0111433
0.0112535
0.0109696
0.0117283
0.0123295
1.37708e-05
0.00786461
0.0098917
0.00407435
0.0011752
0.00916189
0.0102225
0.00872223
0.0104204
0.0133069
0.0117772
0.0111192
0.0105549
0.0120841
0.0114456
0.0111274
0.0112722
0.0109437
0.0117302
0.0121784
2.66369e-05
0.00786779
0.00984049
0.00408264
0.00120414
0.00916262
0.010189
0.00873357
0.010411
0.0132763
0.0117887
0.0111004
0.0105687
0.0120689
0.0114644
0.0111077
0.0112891
0.0109213
0.0117103
0.012044
5.17261e-05
0.00786143
0.00978148
0.00411769
0.00125611
0.00914358
0.0101556
0.00875091
0.0104005
0.0132374
0.0118013
0.0110736
0.0105833
0.0120499
0.0114823
0.0110864
0.0113078
0.0108979
0.0116738
0.0119342
9.22808e-05
0.00784072
0.00971773
0.00418081
0.00133724
0.00910435
0.010128
0.00877334
0.0103892
0.0131938
0.0118138
0.0110426
0.0105975
0.0120291
0.0115022
0.0110649
0.0113251
0.0108734
0.0116252
0.0118411
0.000149092
0.00780636
0.00965394
0.00426755
0.00144727
0.00905052
0.0101113
0.00879875
0.0103776
0.0131479
0.0118257
0.0110098
0.0106113
0.0120081
0.0115244
0.011043
0.0113383
0.0108513
0.0115635
0.0117558
0.000220832
0.00776318
0.00959436
0.00436938
0.00158077
0.00898953
0.0101075
0.00882469
0.0103655
0.0131006
0.0118367
0.0109766
0.0106252
0.0119871
0.0115477
0.0110209
0.0113464
0.0108333
0.0114868
0.0116741
0.000304803
0.00771747
0.00954121
0.00447864
0.00173001
0.00892744
0.0101148
0.00884921
0.0103523
0.0130524
0.0118471
0.0109438
0.0106393
0.011966
0.011571
0.0109997
0.0113485
0.0108194
0.0113961
0.0115949
0.000397997
0.00767434
0.00949437
0.00459069
0.00188778
0.00886779
0.0101297
0.00887155
0.0103376
0.0130037
0.0118565
0.0109112
0.0106538
0.0119454
0.0115932
0.0109805
0.0113437
0.010809
0.0112954
0.0115173
0.000497871
0.00763637
0.00945212
0.0047028
0.00204887
0.0088118
0.0101488
0.00889206
0.0103217
0.0129549
0.0118646
0.0108789
0.0106687
0.011926
0.0116135
0.0109641
0.0113315
0.0108016
0.0111888
0.0114397
0.000602621
0.00760382
0.00941225
0.0048136
0.00221047
0.00875913
0.0101698
0.00891145
0.0103053
0.0129063
0.0118715
0.0108469
0.0106837
0.0119084
0.0116313
0.0109509
0.0113118
0.0107961
0.01108
0.0113605
0.00071111
0.00757488
0.0093729
0.00492242
0.00237166
0.00870894
0.0101911
0.00893025
0.0102888
0.0128585
0.011877
0.0108152
0.0106981
0.0118926
0.0116467
0.0109406
0.011285
0.0107909
0.0109714
0.0112783
0.000822721
0.00754838
0.00933302
0.00502891
0.00253254
0.00866049
0.0102119
0.00894874
0.0102729
0.0128119
0.0118811
0.0107841
0.0107111
0.0118789
0.01166
0.0109322
0.0112515
0.0107847
0.0108646
0.0111922
0.000937205
0.00752346
0.0092923
0.00513291
0.00269362
0.00861349
0.0102317
0.00896721
0.0102576
0.0127667
0.0118839
0.0107537
0.0107219
0.011867
0.0116717
0.0109247
0.0112117
0.0107763
0.0107611
0.0111017
0.00105453
0.00749964
0.00925101
0.00523443
0.00285549
0.00856811
0.0102507
0.008986
0.0102429
0.0127231
0.0118852
0.0107241
0.0107303
0.011857
0.0116823
0.010917
0.011166
0.0107649
0.0106622
0.0110064
0.00117479
0.00747667
0.0092097
0.00533357
0.00301866
0.0085248
0.0102687
0.00900543
0.0102286
0.0126811
0.0118847
0.0106954
0.0107364
0.0118483
0.0116922
0.0109087
0.0111146
0.0107499
0.0105694
0.0109072
0.00129809
0.00745443
0.00916898
0.00543044
0.00318352
0.00848413
0.0102859
0.00902586
0.0102143
0.0126407
0.0118822
0.0106676
0.0107404
0.0118402
0.0117017
0.0108999
0.0110579
0.0107308
0.0104835
0.0108052
0.00142459
0.00743287
0.00912944
0.00552522
0.00335025
0.00844664
0.0103021
0.00904754
0.0101996
0.012602
0.0118777
0.0106403
0.0107427
0.0118322
0.0117109
0.0108908
0.010996
0.0107078
0.0104056
0.0107021
0.00155437
0.00741197
0.00909157
0.00561808
0.00351886
0.00841277
0.010317
0.00907071
0.0101842
0.0125649
0.0118716
0.0106131
0.0107437
0.0118239
0.0117195
0.0108817
0.0109295
0.0106809
0.010337
0.0105991
0.00168754
0.00739175
0.00905583
0.00570918
0.00368912
0.00838293
0.0103304
0.00909563
0.0101678
0.0125294
0.0118642
0.0105856
0.0107436
0.0118152
0.011727
0.010873
0.0108589
0.0106497
0.0102787
0.0104971
0.00182419
0.00737225
0.00902248
0.00579865
0.00386056
0.00835744
0.010342
0.00912249
0.0101505
0.0124951
0.0118564
0.0105576
0.0107425
0.0118065
0.0117328
0.010865
0.0107854
0.0106134
0.0102316
0.0103982
0.00196437
0.00735355
0.00899176
0.0058867
0.00403263
0.00833659
0.0103517
0.0091514
0.0101322
0.0124616
0.0118487
0.0105287
0.0107401
0.0117982
0.0117362
0.0108577
0.01071
0.0105707
0.010196
0.0103065
0.00210809
0.00733575
0.0089638
0.00597359
0.00420469
0.00832059
0.0103592
0.00918238
0.0101133
0.0124283
0.0118419
0.0104989
0.0107362
0.0117908
0.0117372
0.0108506
0.010634
0.0105205
0.0101716
0.0102281
0.0022554
0.00731898
0.00893867
0.00605964
0.00437613
0.00830958
0.0103645
0.00921533
0.0100941
0.0123948
0.0118364
0.0104683
0.0107299
0.0117849
0.0117355
0.0108429
0.0105591
0.0104617
0.0101549
0.0101699
0.00240626
0.00730346
0.00891641
0.0061452
0.00454637
0.00830363
0.0103678
0.00925003
0.010075
0.0123608
0.0118327
0.010437
0.0107207
0.011781
0.0117314
0.0108338
0.0104877
0.010395
0.0101387
0.0101337
0.00256068
0.00728938
0.00889706
0.00623068
0.0047149
0.00830269
0.0103692
0.00928622
0.0100561
0.0123262
0.0118311
0.0104052
0.010708
0.0117795
0.0117253
0.010822
0.0104219
0.0103246
0.010115
0.0101132
0.00271868
0.00727699
0.00888049
0.00631651
0.00488132
0.0083065
0.0103691
0.00932373
0.0100372
0.0122906
0.011832
0.010373
0.0106912
0.0117809
0.0117186
0.0108058
0.0103615
0.0102561
0.0100821
0.0100963
0.00288022
0.00726666
0.00886661
0.00640319
0.00504546
0.00831461
0.010368
0.00936274
0.0100183
0.0122538
0.0118358
0.0103404
0.010669
0.0117858
0.0117136
0.0107842
0.0103038
0.0101939
0.0100467
0.010073
0.00304513
0.00725879
0.00885541
0.00649136
0.00520714
0.0083263
0.0103671
0.00940377
0.00999911
0.0122154
0.011843
0.0103078
0.0106395
0.0117936
0.0117128
0.010758
0.010246
0.0101372
0.0100164
0.0100431
0.00321329
0.00725383
0.00884682
0.00659686
0.00536657
0.00834076
0.0103681
0.00944745
0.00997926
0.0121745
0.0118544
0.0102761
0.0106012
0.0118029
0.0117179
0.0107289
0.0101881
0.0100832
0.00999271
0.0100143
0.00338446
0.00725229
0.00884063
0.00668884
0.00552432
0.0083573
0.0103724
0.00949474
0.00995853
0.0121298
0.0118708
0.0102471
0.0105525
0.0118122
0.0117312
0.0106973
0.0101314
0.0100333
0.00997235
0.00999219
0.00355847
0.00725454
0.00883679
0.00678252
0.00568105
0.0083754
0.0103776
0.00954683
0.00993713
0.0120795
0.0118923
0.0102234
0.0104918
0.0118186
0.0117556
0.0106633
0.0100731
0.00999294
0.00995555
0.00997614
0.00373519
0.0072609
0.00883549
0.00687785
0.00583734
0.00839492
0.0103819
0.00960481
0.00991636
0.0120217
0.0119181
0.0102078
0.0104181
0.011818
0.0117939
0.01063
0.0100075
0.00996451
0.00995006
0.0099645
0.00391443
0.00727165
0.00883723
0.00697443
0.0059935
0.00841591
0.0103844
0.00966936
0.00989766
0.0119548
0.0119461
0.0102033
0.0103327
0.0118055
0.0118465
0.010604
0.00992965
0.00994261
0.00996533
0.00996214
0.0040961
0.00728679
0.00884267
0.00707219
0.00614954
0.0084388
0.0103837
0.00974006
0.0098837
0.0118779
0.0119731
0.0102128
0.0102388
0.0117762
0.0119112
0.0105929
0.00983884
0.00991697
0.0100049
0.00997994
0.00428026
0.0073061
0.00885255
0.00717126
0.00630518
0.00846472
0.0103782
0.009816
0.00987793
0.0117916
0.0119953
0.0102381
0.0101407
0.0117266
0.0119843
0.0106034
0.00973869
0.00987752
0.0100643
0.0100279
0.00446699
0.00732918
0.00886809
0.00727192
0.00645927
0.00849494
0.0103678
0.00989585
0.00988318
0.0116977
0.0120085
0.0102783
0.0100431
0.0116541
0.0120607
0.0106412
0.00963501
0.00981615
0.0101342
0.0101122
0.0046565
0.00735533
0.00889045
0.00737516
0.00660965
0.00853101
0.0103534
0.00997606
0.0099007
0.011599
0.0120094
0.0103313
0.00995115
0.011558
0.0121337
0.0107112
0.00953666
0.00972532
0.0102021
0.0102351
0.00484925
0.00738385
0.00891988
0.00748218
0.00675436
0.0085734
0.010337
0.0100534
0.00992987
0.0114994
0.0119965
0.0103938
0.00986976
0.0114386
0.0121936
0.0108164
0.00945874
0.00960074
0.0102496
0.0103913
0.00504556
0.00741437
0.00895597
0.00759514
0.00689189
0.00862106
0.0103221
0.010126
0.00997002
0.0114032
0.0119703
0.0104628
0.00980282
0.011298
0.0122296
0.0109543
0.00941966
0.00944909
0.0102543
0.0105638
0.00524579
0.00744669
0.00899767
0.00771695
0.00702146
0.00867188
0.0103117
0.0101926
0.0100188
0.0113127
0.0119319
0.010537
0.00975344
0.0111396
0.012232
0.0111146
0.00943585
0.00929089
0.0101996
0.010725
0.00545052
0.00748101
0.00904242
0.00785156
0.00714448
0.00872139
0.010309
0.0102546
0.0100708
0.0112276
0.0118833
0.0106158
0.00972503
0.0109678
0.0121939
0.0112831
0.00951663
0.00915191
0.0100851
0.0108425
0.00566008
0.00751802
0.00908667
0.0080018
0.00726445
0.008764
0.0103151
0.0103133
0.0101217
0.0111472
0.0118257
0.0106986
0.00972186
0.0107887
0.0121109
0.0114449
0.0096617
0.00905658
0.00992781
0.0108915
0.0058746
0.00755876
0.00912734
0.00816798
0.0073863
0.00879534
0.0103277
0.0103743
0.0101706
0.0110696
0.0117593
0.0107846
0.00974847
0.010612
0.0119823
0.0115837
0.00986086
0.00902528
0.00975446
0.0108649
0.00609399
0.00760466
0.00916201
0.0083493
0.00751615
0.00881329
0.0103416
0.0104439
0.0102204
0.0109906
0.0116826
0.0108717
0.00980824
0.0104501
0.0118139
0.0116828
0.0100944
0.00907012
0.00959342
0.0107723
0.00631788
0.00765758
0.00918885
0.00854197
0.00766103
0.00881791
0.0103489
0.0105262
0.0102744
0.0109093
0.011594
0.0109542
0.00990165
0.010317
0.0116194
0.0117304
0.0103377
0.00919
0.00947252
0.010634
0.00654563
0.00771962
0.00920696
0.00873948
0.0078278
0.00881232
0.0103395
0.0106193
0.0103445
0.0108318
0.011491
0.0110249
0.0100247
0.0102254
0.0114154
0.011724
0.0105651
0.00936924
0.00941481
0.0104779
0.00677642
0.00779267
0.00921488
0.00893429
0.00802087
0.00880361
0.0103059
0.0107203
0.0104393
0.0107648
0.0113741
0.0110759
0.0101683
0.0101838
0.0112173
0.011669
0.0107582
0.00958466
0.00943074
0.0103366
0.00700927
0.00787877
0.00921621
0.00911875
0.00824122
0.00880212
0.0102446
0.0108157
0.0105606
0.0107203
0.01125
0.0110985
0.0103199
0.0101956
0.0110424
0.0115765
0.0109078
0.00981263
0.00951201
0.010239
0.00724298
0.00797987
0.00921205
0.00928617
0.00848585
0.00882022
0.0101576
0.0108863
0.0107033
0.0107129
0.0111293
0.0110891
0.0104641
0.0102539
0.0109078
0.0114628
0.0110117
0.0100344
0.00963814
0.0101987
0.0074758
0.00809669
0.0092077
0.00943241
0.00874597
0.00886936
0.0100529
0.0109156
0.0108596
0.0107518
0.0110257
0.0110534
0.0105861
0.0103432
0.0108237
0.0113474
0.0110727
0.0102379
0.00978953
0.0102084
0.00770657
0.00822974
0.00920813
0.00955411
0.00901018
0.00895732
0.00994531
0.010896
0.0110107
0.0108378
0.0109562
0.0110023
0.0106777
0.0104484
0.0107877
0.0112482
0.0111003
0.0104162
0.00995583
0.0102535
0.00793332
0.00837914
0.00922107
0.00964922
0.00926436
0.00908573
0.00985157
0.0108312
0.0111332
0.0109638
0.0109364
0.0109484
0.0107372
0.0105556
0.0107905
0.011176
0.0111081
0.0105646
0.0101317
0.0103292
0.00815537
0.00854011
0.00925185
0.00972277
0.0094983
0.00924994
0.00978715
0.0107245
0.0112105
0.0111169
0.0109731
0.0109092
0.0107693
0.0106524
0.0108228
0.0111348
0.0111116
0.0106837
0.0103065
0.010435
0.00837455
0.00871235
0.00929978
0.00977332
0.00970254
0.00944307
0.00976842
0.0105945
0.0112361
0.0112714
0.0110599
0.0109038
0.0107863
0.0107289
0.0108729
0.0111245
0.0111251
0.0107832
0.0104668
0.0105629
0.00859057
0.00890423
0.00936675
0.00979375
0.00986766
0.0096537
0.00980429
0.0104915
0.0112151
0.0114009
0.0111868
0.0109431
0.0108047
0.010785
0.0109269
0.0111391
0.0111548
0.0108775
0.0106083
0.0106971
0.00880083
0.00908945
0.00945761
0.0098228
0.0100005
0.00986204
0.00988881
0.0104202
0.0111562
0.0114874
0.0113345
0.0110267
0.0108413
0.010832
0.0109766
0.0111682
0.0111992
0.0109784
0.0107424
0.0108276
0.00900421
0.00927505
0.00957099
0.00986027
0.0101018
0.0100549
0.0100115
0.0103882
0.011078
0.0115269
0.0114783
0.0111491
0.0109063
0.0108806
0.0110231
0.0112033
0.0112509
0.0110864
0.0108829
0.0109567
0.0092023
0.00945884
0.00970109
0.00991002
0.01018
0.0102264
0.0101602
0.0104002
0.0110061
0.0115278
0.011599
0.0112989
0.0110052
0.0109383
0.0110694
0.0112436
0.0113058
0.0111944
0.0110327
0.0110938
0.00939504
0.00963529
0.00984242
0.00998036
0.0102461
0.0103721
0.01032
0.0104547
0.0109586
0.0115017
0.0116869
0.0114577
0.0111381
0.0110152
0.0111166
0.0112884
0.0113652
0.0112971
0.011184
0.0112435
0.009583
0.00980505
0.00999152
0.0100693
0.0103074
0.0104928
0.0104802
0.0105445
0.0109438
0.0114669
0.0117429
0.0116065
0.0112958
0.0111224
0.0111743
0.0113353
0.0114307
0.0113975
0.0113312
0.0114052
0.00976828
0.00997317
0.0101382
0.010172
0.0103707
0.0105927
0.0106331
0.0106596
0.0109649
0.0114422
0.0117763
0.0117357
0.0114645
0.0112612
0.0112582
0.0113887
0.0114997
0.011499
0.0114723
0.0115713
0.00994889
0.0101306
0.0102833
0.0102896
0.0104431
0.0106775
0.0107726
0.0107898
0.0110198
0.0114386
0.0117987
0.0118447
0.0116328
0.0114223
0.0113739
0.0114575
0.0115683
0.0115998
0.011606
0.0117319
0.010125
0.0102882
0.0104237
0.0104123
0.0105238
0.0107527
0.0108975
0.0109393
0.0111052
0.0114612
0.0118214
0.0119376
0.0117958
0.0115952
0.0115139
0.0115518
0.0116444
0.0117025
0.0117386
0.0118875
0.0102937
0.0104351
0.0105603
0.0105424
0.0106163
0.010824
0.0110088
0.0110799
0.0112147
0.0115138
0.0118547
0.0120203
0.0119514
0.0117771
0.0116736
0.0116741
0.0117394
0.0118106
0.0118744
0.0120409
0.0104584
0.0105816
0.0106868
0.0106667
0.0107168
0.0108982
0.011106
0.0112112
0.0113377
0.0115934
0.011907
0.0121005
0.0120971
0.011965
0.0118545
0.0118237
0.0118596
0.0119287
0.0120139
0.0121939
0.0106143
0.0107225
0.0108089
0.0107884
0.0108217
0.0109744
0.0111932
0.0113337
0.0114661
0.0116938
0.0119826
0.0121895
0.0122389
0.0121564
0.0120567
0.0120032
0.0120103
0.0120664
0.0121618
0.0123521
0.010756
0.0108498
0.0109297
0.0109111
0.0109298
0.0110543
0.0112739
0.0114464
0.0115962
0.0118093
0.0120771
0.0122951
0.0123879
0.0123535
0.0122777
0.0122161
0.0121991
0.0122356
0.0123285
0.0125223
0.0108941
0.0109799
0.0110356
0.0110133
0.011033
0.0111397
0.0113542
0.011548
0.0117222
0.0119342
0.0121878
0.012417
0.0125507
0.0125614
0.012517
0.0124658
0.0124373
0.012455
0.012535
0.0127188
0.0110153
0.0110951
0.0111386
0.011112
0.0111318
0.011225
0.0114335
0.0116429
0.011841
0.0120649
0.0123135
0.0125529
0.0127288
0.0127878
0.0127789
0.0127502
0.012727
0.0127385
0.0128111
0.0129801
0.011121
0.0111995
0.0112365
0.0112012
0.0112128
0.011298
0.0115011
0.0117254
0.0119507
0.0121942
0.0124543
0.012704
0.0129181
0.0130278
0.013052
0.013044
0.013035
0.0130587
0.0131446
0.0133369
0.0112145
0.0113019
0.0113329
0.0112887
0.0113038
0.0113646
0.011556
0.011774
0.0120323
0.0123308
0.0126477
0.012955
0.0132358
0.013434
0.0135298
0.0135571
0.01353
0.0134559
0.0134089
0.0134729
0.0112763
0.0113311
0.0113573
0.0113368
0.0114239
0.0115608
0.0116844
0.0118296
0.0119811
0.0121692
0.012489
0.0129336
0.0133656
0.0136884
0.0139129
0.0141428
0.0144714
0.0148678
0.0152722
0.015592
0.0114008
0.0114732
0.0114757
0.0113954
0.0113449
0.0114496
0.0116239
0.0119605
0.01237
0.0127331
0.0130411
0.013335
0.0136159
0.0138892
0.0141615
0.0144126
0.0146486
0.014892
0.0151209
0.0152835
0.0112383
0.0113131
0.0114583
0.0115644
0.0117204
0.0118219
0.0120557
0.0122129
0.0124065
0.0126215
0.0128979
0.0131908
0.0135079
0.0138168
0.0141571
0.0145381
0.0149716
0.0154257
0.0158434
0.0161497
0.0114945
0.0116026
0.0116782
0.011662
0.0117229
0.0118796
0.0120483
0.0123035
0.0125869
0.0129306
0.0132683
0.013596
0.0139014
0.014137
0.0142868
0.0143466
0.0143073
0.0141918
0.0140361
0.0139182
0.0112975
0.0114033
0.0115973
0.0117655
0.0119386
0.0120703
0.012265
0.0124679
0.0126895
0.0129128
0.0132058
0.0134937
0.0137946
0.0141252
0.0144777
0.0148827
0.0153184
0.0157509
0.0161177
0.0163331
0.0114628
0.0115907
0.0117973
0.0119145
0.0120445
0.0121812
0.0123529
0.0125427
0.0127982
0.0130518
0.0133901
0.0137402
0.0140341
0.0143227
0.014593
0.0148528
0.0151025
0.015332
0.0155118
0.0155745
0.0143706
0.0126244
0.00712213
0.00242327
0.00184653
0.00392276
0.00629901
0.00802308
0.00909665
0.00986072
0.0105524
0.011227
0.0118814
0.0124723
0.0130056
0.0136215
0.0143444
0.0150124
0.0155274
0.0159574
0.0164477
0.0170627
0.0176781
0.0181788
0.0186713
0.0193228
0.0200845
0.0208145
0.021497
0.0221782
0.0228593
0.0235228
0.0241762
0.0248212
0.0254417
0.026038
0.0266443
0.0272875
0.027969
0.0286753
0.0293809
0.0300703
0.0307834
0.0315431
0.032291
0.0330069
0.0337592
0.0345793
0.0353815
0.0360788
0.0367375
0.0374908
0.0383043
0.039127
0.0400029
0.0409621
0.0419185
0.0428624
0.04385
0.044869
0.0458125
0.0466375
0.0474927
0.0485084
0.0496218
0.0507133
0.0518074
0.0528816
0.0539546
0.0550454
0.0561733
0.0573351
0.0585691
0.0598139
0.0610707
0.0623316
0.0636241
0.0649431
0.0662769
0.0676724
0.0690706
0.0705222
0.0719847
0.0735103
0.0750241
0.0765515
0.0781167
0.0797123
0.0813772
0.0830419
0.0847195
0.0864311
0.0881445
0.0899368
0.0917022
0.093528
0.095356
0.0971118
0.098826
0.100397
0.0140678
0.0125203
0.00721626
0.00256716
0.00193047
0.00396296
0.00632495
0.00804238
0.0091114
0.00987218
0.0105615
0.0112344
0.0118878
0.0124778
0.0130102
0.0136253
0.0143479
0.0150159
0.0155305
0.01596
0.0164499
0.0170646
0.0176801
0.0181806
0.0186727
0.019324
0.0200857
0.0208158
0.0214981
0.0221792
0.0228602
0.0235238
0.0241771
0.0248221
0.0254426
0.0260389
0.0266452
0.0272883
0.0279698
0.0286761
0.0293817
0.0300711
0.0307841
0.0315438
0.0322917
0.0330076
0.0337598
0.0345798
0.0353821
0.0360794
0.036738
0.0374913
0.0383048
0.0391274
0.0400033
0.0409625
0.0419189
0.0428627
0.0438503
0.0448693
0.0458129
0.0466378
0.0474929
0.0485086
0.049622
0.0507135
0.0518076
0.0528818
0.0539549
0.0550456
0.0561735
0.0573353
0.0585693
0.0598141
0.0610709
0.0623317
0.0636242
0.0649433
0.066277
0.0676726
0.0690708
0.0705223
0.0719848
0.0735105
0.0750243
0.0765517
0.0781168
0.0797124
0.0813773
0.083042
0.0847196
0.0864312
0.0881446
0.0899369
0.0917023
0.0935281
0.0953561
0.0971119
0.098826
0.100397
0.0136667
0.0123698
0.00739674
0.00283931
0.00208056
0.00401909
0.0063506
0.00806036
0.00912665
0.00988577
0.0105732
0.0112439
0.0118953
0.012484
0.0130153
0.0136296
0.0143518
0.0150194
0.0155336
0.0159627
0.0164521
0.0170666
0.017682
0.0181822
0.0186739
0.0193252
0.020087
0.020817
0.0214991
0.0221802
0.0228611
0.0235246
0.0241779
0.0248229
0.0254433
0.0260396
0.0266458
0.0272889
0.0279705
0.0286768
0.0293824
0.0300717
0.0307847
0.0315444
0.0322923
0.0330081
0.0337603
0.0345804
0.0353827
0.03608
0.0367384
0.0374917
0.0383052
0.0391278
0.0400036
0.0409628
0.0419192
0.042863
0.0438505
0.0448697
0.0458133
0.0466381
0.0474931
0.0485087
0.0496222
0.0507137
0.0518078
0.052882
0.053955
0.0550457
0.0561737
0.0573354
0.0585695
0.0598142
0.0610711
0.0623319
0.0636243
0.0649434
0.0662771
0.0676727
0.0690709
0.0705224
0.0719849
0.0735106
0.0750244
0.0765518
0.0781169
0.0797125
0.0813774
0.0830421
0.0847197
0.0864313
0.0881447
0.089937
0.0917024
0.0935282
0.0953562
0.097112
0.0988261
0.100397
0.0132791
0.0122386
0.00764177
0.00319369
0.00229181
0.00410034
0.00638679
0.0080846
0.00914683
0.0099041
0.0105896
0.0112574
0.0119058
0.0124927
0.013023
0.0136363
0.0143571
0.0150236
0.0155377
0.0159668
0.0164558
0.0170695
0.0176842
0.018184
0.0186755
0.0193267
0.0200885
0.0208184
0.0215004
0.0221814
0.0228622
0.0235256
0.0241788
0.0248237
0.0254441
0.0260403
0.0266465
0.0272895
0.0279711
0.0286774
0.0293831
0.0300724
0.0307853
0.031545
0.0322929
0.0330087
0.0337608
0.0345809
0.0353833
0.0360806
0.0367388
0.037492
0.0383056
0.0391281
0.0400039
0.0409632
0.0419196
0.0428633
0.0438508
0.04487
0.0458137
0.0466384
0.0474932
0.0485088
0.0496225
0.050714
0.0518081
0.0528823
0.0539552
0.0550459
0.0561738
0.0573356
0.0585696
0.0598144
0.0610712
0.062332
0.0636245
0.0649435
0.0662773
0.0676728
0.069071
0.0705225
0.071985
0.0735107
0.0750245
0.0765519
0.078117
0.0797126
0.0813775
0.0830422
0.0847198
0.0864314
0.0881448
0.0899371
0.0917025
0.0935283
0.0953563
0.0971121
0.0988263
0.100397
0.012926
0.0121189
0.00790108
0.00357244
0.00252859
0.00419473
0.00642882
0.00811358
0.00917196
0.00992764
0.0106115
0.0112758
0.0119202
0.0125047
0.0130346
0.0136466
0.0143646
0.0150289
0.015543
0.0159734
0.0164624
0.0170744
0.0176873
0.0181865
0.0186781
0.0193292
0.0200906
0.0208202
0.0215021
0.0221829
0.0228636
0.0235269
0.0241799
0.0248246
0.0254448
0.0260409
0.0266471
0.0272901
0.0279716
0.0286779
0.0293837
0.0300731
0.030786
0.0315457
0.0322936
0.0330094
0.0337614
0.0345816
0.035384
0.0360812
0.0367393
0.0374924
0.038306
0.0391285
0.0400043
0.0409636
0.04192
0.0428636
0.0438512
0.0448705
0.0458142
0.0466388
0.0474933
0.048509
0.0496228
0.0507143
0.0518083
0.0528825
0.0539554
0.0550461
0.056174
0.0573357
0.0585698
0.0598146
0.0610714
0.0623322
0.0636246
0.0649437
0.0662774
0.0676729
0.0690711
0.0705227
0.0719852
0.0735108
0.0750246
0.076552
0.0781171
0.0797127
0.0813776
0.0830424
0.0847199
0.0864315
0.0881448
0.0899372
0.0917026
0.0935284
0.0953564
0.0971122
0.0988266
0.100398
0.012595
0.0119825
0.00814822
0.003958
0.0027809
0.00429702
0.00647271
0.00814453
0.00920033
0.00995487
0.010637
0.0112977
0.0119374
0.0125196
0.0130496
0.0136606
0.0143745
0.0150353
0.0155497
0.0159827
0.0164725
0.0170819
0.0176918
0.0181903
0.0186822
0.0193329
0.0200934
0.0208225
0.0215043
0.0221849
0.0228654
0.0235286
0.0241815
0.0248259
0.0254456
0.0260417
0.0266478
0.0272908
0.027972
0.0286782
0.0293842
0.0300738
0.0307867
0.0315463
0.0322942
0.0330101
0.0337622
0.0345824
0.0353849
0.036082
0.0367399
0.0374929
0.0383064
0.0391289
0.0400047
0.040964
0.0419205
0.042864
0.0438516
0.044871
0.0458149
0.0466392
0.0474934
0.0485092
0.0496231
0.0507146
0.0518086
0.0528828
0.0539557
0.0550463
0.0561742
0.0573358
0.0585699
0.0598148
0.0610715
0.0623323
0.0636248
0.0649438
0.0662775
0.0676731
0.0690713
0.0705228
0.0719853
0.0735109
0.0750248
0.0765521
0.0781172
0.0797127
0.0813777
0.0830425
0.08472
0.0864316
0.0881449
0.0899373
0.0917027
0.0935285
0.0953566
0.0971125
0.098827
0.100399
0.0122763
0.0118207
0.00838079
0.00435183
0.0030507
0.00440827
0.00651815
0.00817667
0.00923131
0.00998498
0.0106651
0.0113216
0.0119563
0.0125363
0.0130671
0.0136772
0.0143863
0.0150425
0.0155573
0.0159943
0.0164856
0.0170918
0.017698
0.0181957
0.0186883
0.0193382
0.020097
0.0208252
0.0215068
0.0221872
0.0228673
0.0235305
0.0241835
0.0248275
0.0254468
0.0260426
0.0266488
0.0272916
0.0279724
0.0286784
0.0293846
0.0300745
0.0307874
0.0315467
0.0322947
0.033011
0.0337632
0.0345833
0.0353858
0.036083
0.0367407
0.0374935
0.0383069
0.0391294
0.0400051
0.0409645
0.041921
0.0428645
0.043852
0.0448716
0.0458156
0.0466396
0.0474936
0.0485094
0.0496235
0.050715
0.051809
0.0528831
0.053956
0.0550466
0.0561744
0.057336
0.0585702
0.059815
0.0610717
0.0623325
0.0636249
0.064944
0.0662776
0.0676732
0.0690714
0.0705229
0.0719854
0.0735111
0.0750249
0.0765522
0.0781173
0.0797129
0.0813779
0.0830426
0.0847201
0.0864317
0.088145
0.0899374
0.0917028
0.0935286
0.0953568
0.0971127
0.0988276
0.100399
0.0119716
0.011641
0.00860164
0.00475512
0.00333949
0.00453001
0.00656545
0.00820953
0.00926451
0.0100177
0.0106953
0.0113471
0.0119764
0.012554
0.0130859
0.0136955
0.0143995
0.0150505
0.0155657
0.0160073
0.0165006
0.0171035
0.0177055
0.0182028
0.0186963
0.0193452
0.0201016
0.0208285
0.0215098
0.0221896
0.0228692
0.0235324
0.0241856
0.0248293
0.0254482
0.026044
0.0266504
0.0272929
0.027973
0.0286784
0.0293849
0.0300753
0.0307882
0.0315469
0.0322948
0.0330117
0.0337644
0.0345843
0.0353868
0.0360842
0.0367419
0.0374944
0.0383075
0.03913
0.0400057
0.040965
0.0419214
0.0428649
0.0438526
0.0448723
0.0458164
0.0466402
0.0474939
0.0485097
0.0496241
0.0507155
0.0518094
0.0528835
0.0539564
0.0550469
0.0561746
0.0573363
0.0585704
0.0598153
0.061072
0.0623327
0.0636251
0.0649442
0.0662778
0.0676734
0.0690716
0.0705231
0.0719855
0.0735112
0.0750251
0.0765523
0.0781175
0.079713
0.081378
0.0830428
0.0847202
0.0864318
0.0881451
0.0899375
0.091703
0.0935287
0.0953571
0.0971131
0.0988283
0.100401
0.0116894
0.0114515
0.00880788
0.00516342
0.00364616
0.00466334
0.00661503
0.00824262
0.00929952
0.010053
0.0107276
0.0113741
0.0119976
0.0125725
0.0131056
0.0137149
0.0144137
0.0150594
0.0155748
0.016021
0.0165166
0.017116
0.0177139
0.018211
0.018706
0.0193537
0.0201072
0.0208323
0.0215132
0.0221923
0.022871
0.0235341
0.0241874
0.024831
0.0254497
0.0260459
0.0266525
0.0272948
0.027974
0.0286786
0.0293852
0.0300763
0.030789
0.031547
0.0322947
0.0330123
0.0337654
0.034585
0.0353876
0.0360856
0.0367434
0.0374956
0.0383085
0.0391309
0.0400065
0.0409655
0.0419217
0.0428652
0.043853
0.044873
0.0458173
0.0466409
0.0474942
0.0485101
0.0496248
0.0507162
0.05181
0.0528841
0.0539569
0.0550473
0.056175
0.0573366
0.0585708
0.0598156
0.0610723
0.062333
0.0636254
0.0649444
0.066278
0.0676735
0.0690717
0.0705232
0.0719857
0.0735114
0.0750253
0.0765525
0.0781176
0.0797131
0.0813782
0.0830429
0.0847204
0.086432
0.0881453
0.0899377
0.0917032
0.0935288
0.0953574
0.0971136
0.0988291
0.100402
0.0114369
0.0112568
0.00899339
0.00557056
0.00396923
0.00480973
0.00666766
0.00827538
0.0093357
0.0100907
0.0107622
0.0114028
0.0120199
0.0125918
0.0131261
0.0137352
0.014429
0.015069
0.0155843
0.0160353
0.0165332
0.0171291
0.0177227
0.0182198
0.0187167
0.0193633
0.0201136
0.0208367
0.0215168
0.0221951
0.0228729
0.0235355
0.0241888
0.0248322
0.025451
0.0260479
0.0266553
0.0272973
0.0279754
0.0286791
0.0293857
0.0300775
0.0307901
0.031547
0.0322945
0.0330129
0.0337663
0.0345854
0.035388
0.0360869
0.0367452
0.0374971
0.0383097
0.0391323
0.0400079
0.0409663
0.0419219
0.0428653
0.0438532
0.0448735
0.0458181
0.0466417
0.0474947
0.0485107
0.0496255
0.0507169
0.0518106
0.0528847
0.0539576
0.0550479
0.0561755
0.057337
0.0585712
0.059816
0.0610726
0.0623334
0.0636257
0.0649447
0.0662782
0.0676737
0.0690719
0.0705234
0.0719859
0.0735116
0.0750255
0.0765526
0.0781178
0.0797132
0.0813783
0.0830431
0.0847205
0.0864322
0.0881454
0.0899378
0.0917034
0.0935289
0.0953578
0.0971143
0.0988302
0.100403
0.0112176
0.0110607
0.0091536
0.00597154
0.00430738
0.00497065
0.00672411
0.00830716
0.00937224
0.0101308
0.0107993
0.0114334
0.0120434
0.012612
0.0131474
0.0137566
0.0144453
0.0150794
0.0155944
0.01605
0.0165503
0.0171425
0.0177316
0.0182289
0.018728
0.0193738
0.0201207
0.0208415
0.0215208
0.0221982
0.0228747
0.0235368
0.0241899
0.0248331
0.0254521
0.02605
0.0266585
0.0273004
0.0279773
0.0286798
0.0293864
0.030079
0.0307914
0.0315471
0.0322942
0.0330134
0.0337671
0.0345854
0.0353879
0.0360877
0.0367468
0.0374987
0.0383112
0.0391342
0.0400099
0.0409676
0.0419224
0.0428653
0.043853
0.0448735
0.0458187
0.0466425
0.0474954
0.0485114
0.0496265
0.0507177
0.0518113
0.0528854
0.0539584
0.0550486
0.0561761
0.0573376
0.0585718
0.0598165
0.0610731
0.0623338
0.0636261
0.0649451
0.0662784
0.067674
0.0690722
0.0705236
0.071986
0.0735118
0.0750257
0.0765528
0.0781179
0.0797134
0.0813785
0.0830433
0.0847207
0.0864323
0.0881455
0.089938
0.0917037
0.0935291
0.0953582
0.0971152
0.0988315
0.100405
0.0110322
0.010868
0.00928695
0.00636246
0.00465856
0.00514704
0.00678533
0.00833761
0.00940854
0.0101732
0.0108393
0.0114661
0.0120683
0.0126331
0.0131697
0.013779
0.0144626
0.0150906
0.015605
0.0160652
0.0165679
0.0171563
0.0177406
0.0182382
0.0187399
0.0193851
0.0201286
0.0208466
0.021525
0.0222014
0.0228767
0.023538
0.0241908
0.0248336
0.0254528
0.026052
0.0266618
0.027304
0.0279796
0.0286807
0.0293873
0.0300807
0.030793
0.0315473
0.0322939
0.033014
0.0337679
0.034585
0.0353871
0.0360881
0.0367482
0.0375
0.0383126
0.0391364
0.0400125
0.0409696
0.0419234
0.0428654
0.0438524
0.0448729
0.0458188
0.0466431
0.047496
0.0485123
0.0496276
0.0507187
0.0518119
0.0528861
0.0539592
0.0550495
0.0561768
0.0573384
0.0585725
0.0598172
0.0610738
0.0623345
0.0636267
0.0649456
0.0662788
0.0676743
0.0690724
0.0705239
0.0719863
0.073512
0.0750259
0.0765529
0.0781181
0.0797135
0.0813787
0.0830435
0.0847209
0.0864325
0.0881457
0.0899381
0.091704
0.0935292
0.0953587
0.0971163
0.0988331
0.100407
0.0108795
0.0106837
0.00939386
0.00673938
0.00501975
0.00533963
0.00685315
0.00836728
0.00944421
0.0102178
0.0108826
0.0115013
0.0120948
0.0126552
0.0131929
0.0138025
0.0144811
0.0151027
0.0156162
0.016081
0.0165861
0.0171704
0.0177499
0.0182478
0.0187525
0.0193973
0.0201372
0.0208523
0.0215295
0.0222048
0.0228787
0.0235391
0.0241915
0.024834
0.0254534
0.0260539
0.0266654
0.027308
0.0279823
0.0286819
0.0293884
0.0300827
0.0307948
0.0315477
0.0322937
0.0330147
0.0337687
0.0345843
0.0353857
0.0360878
0.0367491
0.0375011
0.0383138
0.0391386
0.0400154
0.0409721
0.041925
0.0428658
0.0438516
0.0448716
0.0458181
0.0466431
0.0474965
0.0485133
0.0496289
0.0507197
0.0518126
0.0528868
0.0539601
0.0550503
0.0561777
0.0573393
0.0585734
0.0598179
0.0610745
0.0623352
0.0636274
0.0649462
0.0662793
0.0676747
0.0690728
0.0705242
0.0719865
0.0735123
0.0750262