/*--------------------------------*- C++ -*----------------------------------*\
| =========                 |                                                 |
| \\      /  F ield         | OpenFOAM: The Open Source CFD Toolbox           |
|  \\    /   O peration     | Version:  2506                                  |
|   \\  /    A nd           | Website:  www.openfoam.com                      |
|    \\/     M anipulation  |                                                 |
\*---------------------------------------------------------------------------*/
FoamFile
{
    version     2.0;
    format      ascii;
    arch        "LSB;label=32;scalar=64";
    class       volVectorField;
    location    "8.35";
    object      U;
}
// * * * * * * * * * * * * * * * * * * * * * * * * * * * * * * * * * * * * * //

dimensions      [0 1 -1 0 0 0 0];

internalField   nonuniform List<vector> 
9600
(
(0.593043 -0.0120235 0)
(1.46384 0.011433 0)
(0.652414 0.0080212 0)
(1.17325 -0.00835628 0)
(0.649737 -0.0207295 0)
(1.40766 -0.00324194 0)
(0.714823 0.00188842 0)
(1.26169 0.00782817 0)
(0.768355 -0.00448057 0)
(1.19329 -0.000334027 0)
(0.768015 0.00105291 0)
(1.16048 0.0123192 0)
(0.830167 0.0102595 0)
(1.15597 0.0157506 0)
(0.829751 0.0128845 0)
(1.16736 0.0133954 0)
(0.845426 0.0146986 0)
(1.16757 0.0129839 0)
(0.856346 0.0129689 0)
(1.14984 0.014861 0)
(0.607259 -0.0126935 0)
(1.45497 0.0110788 0)
(0.692217 0.010012 0)
(1.16505 -0.00789013 0)
(0.661475 -0.0239514 0)
(1.39701 -0.00354282 0)
(0.733465 0.00303319 0)
(1.25158 0.00775274 0)
(0.795394 -0.0041521 0)
(1.18787 0.00020964 0)
(0.78979 0.00125111 0)
(1.14849 0.0119492 0)
(0.85564 0.0099411 0)
(1.13377 0.01606 0)
(0.871827 0.0126295 0)
(1.12477 0.0130388 0)
(0.911726 0.0149127 0)
(1.09344 0.0119354 0)
(0.959779 0.0147802 0)
(1.02942 0.0124925 0)
(0.633373 -0.0133787 0)
(1.43299 0.0109537 0)
(0.763118 0.011888 0)
(1.15269 -0.00720532 0)
(0.688044 -0.0263138 0)
(1.37294 -0.00374507 0)
(0.777737 0.00417858 0)
(1.22869 0.00748229 0)
(0.848022 -0.00373731 0)
(1.16866 0.000648633 0)
(0.839921 0.00155581 0)
(1.11609 0.0111514 0)
(0.907948 0.00996334 0)
(1.09016 0.0159849 0)
(0.935966 0.0126232 0)
(1.06866 0.0122773 0)
(0.977503 0.0153307 0)
(1.04068 0.0111996 0)
(1.00782 0.0157189 0)
(1.00844 0.0126586 0)
(0.671903 -0.0140186 0)
(1.3952 0.0104311 0)
(0.85005 0.013617 0)
(1.13646 -0.00603601 0)
(0.732353 -0.0285874 0)
(1.33075 -0.00436666 0)
(0.845716 0.00529816 0)
(1.19297 0.00704736 0)
(0.916047 -0.00326009 0)
(1.13555 0.000930485 0)
(0.90434 0.00219772 0)
(1.07338 0.0102578 0)
(0.960476 0.0102891 0)
(1.04977 0.0154824 0)
(0.983357 0.0129173 0)
(1.03426 0.0115294 0)
(1.00851 0.0156951 0)
(1.02586 0.0109101 0)
(1.01856 0.0160496 0)
(1.01448 0.0136735 0)
(0.721851 -0.0146308 0)
(1.34094 0.00928996 0)
(0.937974 0.0152906 0)
(1.11801 -0.00453999 0)
(0.790042 -0.0305424 0)
(1.26959 -0.00543397 0)
(0.923786 0.00646134 0)
(1.15313 0.0065558 0)
(0.980221 -0.00270879 0)
(1.09892 0.00118808 0)
(0.959605 0.00312052 0)
(1.03877 0.00956726 0)
(0.99374 0.0105356 0)
(1.02756 0.0150506 0)
(1.00716 0.0131888 0)
(1.02292 0.0111083 0)
(1.01834 0.01576 0)
(1.02531 0.0108063 0)
(1.02185 0.016259 0)
(1.01906 0.0145137 0)
(0.779091 -0.0151802 0)
(1.27343 0.00771493 0)
(1.0128 0.0167641 0)
(1.09998 -0.00284476 0)
(0.849794 -0.0319369 0)
(1.19587 -0.00684473 0)
(0.992392 0.00745723 0)
(1.12125 0.00618728 0)
(1.02598 -0.00208252 0)
(1.06942 0.00157843 0)
(0.99387 0.0040677 0)
(1.02016 0.00919712 0)
(1.00858 0.0106034 0)
(1.02016 0.0147805 0)
(1.0178 0.0133016 0)
(1.02284 0.0109124 0)
(1.0222 0.0156193 0)
(1.02732 0.0108145 0)
(1.02506 0.0163603 0)
(1.02302 0.0151368 0)
(0.836932 -0.0156061 0)
(1.20038 0.00592398 0)
(1.06426 0.0178953 0)
(1.08505 -0.00107598 0)
(0.900719 -0.0326483 0)
(1.1219 -0.00848581 0)
(1.03787 0.0079723 0)
(1.10234 0.00605048 0)
(1.05063 -0.00135532 0)
(1.04991 0.00212544 0)
(1.0093 0.00487729 0)
(1.01346 0.00908062 0)
(1.01368 0.0105416 0)
(1.01937 0.0145093 0)
(1.02331 0.0132761 0)
(1.02603 0.0107945 0)
(1.02562 0.0154603 0)
(1.02977 0.0108942 0)
(1.0284 0.0162859 0)
(1.02733 0.0156914 0)
(0.888566 -0.0158698 0)
(1.13132 0.00410842 0)
(1.08857 0.0185956 0)
(1.07433 0.000634514 0)
(0.938517 -0.032687 0)
(1.05985 -0.0101688 0)
(1.05764 0.00784992 0)
(1.09216 0.00610389 0)
(1.05935 -0.000517732 0)
(1.03744 0.0027899 0)
(1.0132 0.00552765 0)
(1.01165 0.00906245 0)
(1.0149 0.0103924 0)
(1.01989 0.0141606 0)
(1.02618 0.0131669 0)
(1.02858 0.0106927 0)
(1.02862 0.015316 0)
(1.03178 0.0110073 0)
(1.03101 0.0160796 0)
(1.03092 0.0162132 0)
(0.929578 -0.0159678 0)
(1.0737 0.00246763 0)
(1.08886 0.0188426 0)
(1.06674 0.00216903 0)
(0.964774 -0.0321662 0)
(1.01616 -0.011703 0)
(1.0572 0.0071495 0)
(1.08335 0.00620609 0)
(1.05848 0.000404755 0)
(1.02871 0.0035112 0)
(1.01178 0.00604132 0)
(1.01026 0.00903097 0)
(1.01389 0.0101945 0)
(1.01894 0.0137467 0)
(1.0262 0.0130106 0)
(1.02844 0.0105789 0)
(1.0295 0.0151403 0)
(1.03195 0.0111588 0)
(1.03164 0.0158036 0)
(1.03229 0.0166732 0)
(0.958829 -0.015915 0)
(1.03088 0.00114501 0)
(1.0732 0.0186852 0)
(1.06029 0.00342119 0)
(0.982817 -0.0312591 0)
(0.990557 -0.0129517 0)
(1.04478 0.00608216 0)
(1.07128 0.00623153 0)
(1.0523 0.00133018 0)
(1.02211 0.00422717 0)
(1.00873 0.00646192 0)
(1.00781 0.00897593 0)
(1.01075 0.00999153 0)
(1.01533 0.0133037 0)
(1.02286 0.0128265 0)
(1.02492 0.0104519 0)
(1.02706 0.0149094 0)
(1.02927 0.0113517 0)
(1.02937 0.0154872 0)
(1.03055 0.0170332 0)
(0.977734 -0.0157389 0)
(1.00256 0.000183174 0)
(1.05122 0.0182169 0)
(1.05365 0.00430772 0)
(0.995122 -0.0301513 0)
(0.978724 -0.0138499 0)
(1.02792 0.00491101 0)
(1.05566 0.00612484 0)
(1.04321 0.00213823 0)
(1.01692 0.00487949 0)
(1.00576 0.00684351 0)
(1.00456 0.00894593 0)
(1.00604 0.00982764 0)
(1.00944 0.012875 0)
(1.01678 0.0126259 0)
(1.01882 0.0103209 0)
(1.02169 0.0146162 0)
(1.02407 0.0115611 0)
(1.02453 0.0151449 0)
(1.02602 0.0172713 0)
(0.988923 -0.0154741 0)
(0.986221 -0.000462413 0)
(1.03064 0.0175504 0)
(1.04668 0.00482488 0)
(1.00308 -0.02899 0)
(0.97555 -0.0144037 0)
(1.01211 0.00385003 0)
(1.03901 0.00588841 0)
(1.03289 0.0027456 0)
(1.01245 0.00542312 0)
(1.0033 0.00721834 0)
(1.00134 0.00898132 0)
(1.0011 0.00973752 0)
(1.00297 0.0124945 0)
(1.00983 0.0124085 0)
(1.01208 0.0101889 0)
(1.01518 0.0142639 0)
(1.01787 0.0117573 0)
(1.0186 0.0147971 0)
(1.0201 0.0173879 0)
(0.995111 -0.0151556 0)
(0.978488 -0.000872226 0)
(1.01527 0.0167897 0)
(1.03985 0.00504396 0)
(1.00767 -0.0278648 0)
(0.976807 -0.0146815 0)
(1.00032 0.00300522 0)
(1.02424 0.00556985 0)
(1.0228 0.00314053 0)
(1.00806 0.00583101 0)
(1.00111 0.00757889 0)
(0.998782 0.00908404 0)
(0.997342 0.00972055 0)
(0.997891 0.0121726 0)
(1.00421 0.0121709 0)
(1.00675 0.0100594 0)
(1.00967 0.0138755 0)
(1.01251 0.0119262 0)
(1.01332 0.0144737 0)
(1.01453 0.0174032 0)
(0.998448 -0.0148129 0)
(0.976063 -0.00112411 0)
(1.00541 0.0160146 0)
(1.03359 0.0050554 0)
(1.00988 -0.0268144 0)
(0.979599 -0.0147703 0)
(0.993132 0.00239207 0)
(1.01303 0.00523685 0)
(1.01396 0.00337 0)
(1.00348 0.00610442 0)
(0.998886 0.00789475 0)
(0.997081 0.00921745 0)
(0.995433 0.00973773 0)
(0.995312 0.0118994 0)
(1.00125 0.0119127 0)
(1.00399 0.00993972 0)
(1.00647 0.0134882 0)
(1.00913 0.0120737 0)
(1.00984 0.0142076 0)
(1.01049 0.0173502 0)
(1.00032 -0.0144662 0)
(0.976341 -0.00127883 0)
(0.999587 0.0152776 0)
(1.02811 0.00493958 0)
(1.01068 -0.0258434 0)
(0.982291 -0.0147449 0)
(0.989496 0.00197556 0)
(1.00545 0.00494515 0)
(1.00691 0.00350143 0)
(0.998935 0.00626848 0)
(0.996622 0.00813381 0)
(0.996111 0.00932687 0)
(0.995178 0.00973882 0)
(0.995062 0.0116484 0)
(1.00082 0.0116347 0)
(1.00362 0.00983444 0)
(1.00561 0.0131368 0)
(1.00781 0.0122174 0)
(1.0083 0.0140215 0)
(1.00827 0.0172641 0)
(1.00145 -0.014126 0)
(0.97764 -0.00137447 0)
(0.996202 0.0146026 0)
(1.0235 0.00474648 0)
(1.01076 -0.0249398 0)
(0.984234 -0.0146597 0)
(0.987865 0.00170034 0)
(1.00069 0.00471858 0)
(1.00173 0.00359097 0)
(0.994909 0.00635695 0)
(0.994566 0.00827571 0)
(0.995673 0.00937237 0)
(0.995913 0.00968452 0)
(0.996174 0.0113901 0)
(1.00187 0.0113419 0)
(1.00462 0.00974195 0)
(1.00617 0.0128387 0)
(1.00783 0.0123731 0)
(1.00811 0.0139202 0)
(1.00747 0.0171691 0)
(1.00215 -0.0137951 0)
(0.979095 -0.00143312 0)
(0.994228 0.0139901 0)
(1.01981 0.0045032 0)
(1.01055 -0.0240871 0)
(0.985387 -0.0145418 0)
(0.987031 0.00151475 0)
(0.997793 0.00455277 0)
(0.998262 0.00367005 0)
(0.991846 0.00639953 0)
(0.993031 0.00831851 0)
(0.995645 0.00934301 0)
(0.997001 0.00955921 0)
(0.997643 0.0111106 0)
(1.00321 0.0110461 0)
(1.00584 0.0096582 0)
(1.00706 0.0125912 0)
(1.00825 0.0125405 0)
(1.00844 0.0138909 0)
(1.00741 0.0170742 0)
(1.00256 -0.0134711 0)
(0.980373 -0.00147049 0)
(0.993131 0.0134301 0)
(1.01708 0.00422376 0)
(1.01022 -0.0232682 0)
(0.985975 -0.0143991 0)
(0.986373 0.00138008 0)
(0.996021 0.00442868 0)
(0.996191 0.0037451 0)
(0.989945 0.00641616 0)
(0.992205 0.00827649 0)
(0.995966 0.00924733 0)
(0.998069 0.00937676 0)
(0.998859 0.0108134 0)
(1.00412 0.0107635 0)
(1.00654 0.00958179 0)
(1.00755 0.0123808 0)
(1.00842 0.0127071 0)
(1.00864 0.0139099 0)
(1.00748 0.0169762 0)
(1.00273 -0.0131496 0)
(0.981413 -0.00149889 0)
(0.992617 0.0129094 0)
(1.01522 0.00392009 0)
(1.00981 -0.0224673 0)
(0.98626 -0.0142325 0)
(0.985718 0.00126962 0)
(0.99492 0.00432389 0)
(0.99516 0.00380863 0)
(0.98913 0.00641863 0)
(0.992069 0.00816899 0)
(0.996573 0.00910391 0)
(0.998968 0.00916597 0)
(0.999632 0.0105146 0)
(1.00437 0.0105102 0)
(1.00654 0.00951654 0)
(1.00735 0.0121968 0)
(1.00805 0.012861 0)
(1.00843 0.0139488 0)
(1.00735 0.0168612 0)
(1.00272 -0.0128258 0)
(0.982258 -0.00152742 0)
(0.992466 0.0124138 0)
(1.01411 0.00360576 0)
(1.00934 -0.0216734 0)
(0.98644 -0.0140396 0)
(0.985098 0.00116827 0)
(0.994245 0.00421904 0)
(0.994821 0.00384955 0)
(0.989148 0.00641281 0)
(0.992452 0.00801581 0)
(0.997358 0.00893253 0)
(0.999666 0.00895403 0)
(1.00001 0.0102313 0)
(1.00406 0.010298 0)
(1.00598 0.00947046 0)
(1.00661 0.0120329 0)
(1.00721 0.0129939 0)
(1.0078 0.0139826 0)
(1.00696 0.0167102 0)
(1.00257 -0.0124962 0)
(0.982993 -0.00156091 0)
(0.992497 0.0119302 0)
(1.01353 0.00328555 0)
(1.00883 -0.0208787 0)
(0.986638 -0.0138199 0)
(0.984599 0.00106735 0)
(0.993872 0.00410288 0)
(0.994894 0.0038565 0)
(0.98969 0.00639807 0)
(0.993118 0.00783835 0)
(0.998182 0.0087477 0)
(1.00016 0.00876328 0)
(1.00011 0.00997428 0)
(1.00345 0.0101285 0)
(1.00513 0.00945152 0)
(1.00558 0.0118812 0)
(1.00616 0.0130969 0)
(1.00695 0.0139994 0)
(1.00642 0.0165094 0)
(1.00231 -0.0121585 0)
(0.983703 -0.00160594 0)
(0.992574 0.0114491 0)
(1.01329 0.0029641 0)
(1.00829 -0.0200786 0)
(0.986918 -0.0135738 0)
(0.984277 0.000960392 0)
(0.993726 0.00397249 0)
(0.995177 0.00382406 0)
(0.990474 0.00637205 0)
(0.993855 0.00765569 0)
(0.998922 0.00855726 0)
(1.00046 0.00860662 0)
(1.00006 0.00974907 0)
(1.00273 0.00999463 0)
(1.00425 0.00946159 0)
(1.00457 0.0117367 0)
(1.00513 0.0131618 0)
(1.00609 0.0140021 0)
(1.00587 0.0162574 0)
(1.00196 -0.0118116 0)
(0.984451 -0.00166337 0)
(0.992623 0.0109659 0)
(1.01319 0.00264596 0)
(1.00775 -0.0192743 0)
(0.987299 -0.0133014 0)
(0.984156 0.000844014 0)
(0.99373 0.00382532 0)
(0.995528 0.00375419 0)
(0.991289 0.00633509 0)
(0.994521 0.00748207 0)
(0.99951 0.00836665 0)
(1.00062 0.00848444 0)
(0.999936 0.00955589 0)
(1.00206 0.0098874 0)
(1.00352 0.00949367 0)
(1.00377 0.0115999 0)
(1.00432 0.013184 0)
(1.00539 0.0139969 0)
(1.00543 0.0159633 0)
(1.00157 -0.0114562 0)
(0.985252 -0.00172915 0)
(0.992633 0.0104791 0)
(1.01308 0.00233269 0)
(1.00724 -0.0184696 0)
(0.987767 -0.013007 0)
(0.98423 0.000718915 0)
(0.993815 0.0036635 0)
(0.995856 0.00365304 0)
(0.992007 0.00628481 0)
(0.995054 0.00732514 0)
(0.999935 0.00817983 0)
(1.00069 0.00839178 0)
(0.999807 0.00939223 0)
(1.00153 0.00979706 0)
(1.003 0.00953778 0)
(1.00324 0.0114728 0)
(1.00378 0.0131655 0)
(1.00491 0.0139859 0)
(1.00518 0.0156433 0)
(1.00116 -0.0110933 0)
(0.986074 -0.00180478 0)
(0.992635 0.0099899 0)
(1.01289 0.00202664 0)
(1.00679 -0.0176688 0)
(0.988291 -0.0126922 0)
(0.984476 0.000586807 0)
(0.993929 0.00349332 0)
(0.996118 0.00352999 0)
(0.992574 0.00621838 0)
(0.995449 0.00718655 0)
(1.00023 0.00799504 0)
(1.00073 0.0083199 0)
(0.999706 0.00925485 0)
(1.00115 0.00971118 0)
(1.00268 0.00958669 0)
(1.00298 0.011356 0)
(1.00351 0.0131099 0)
(1.00466 0.0139745 0)
(1.00509 0.015327 0)
(1.00078 -0.010723 0)
(0.986861 -0.00188945 0)
(0.992668 0.00949851 0)
(1.01258 0.00172948 0)
(1.0064 -0.0168783 0)
(0.988837 -0.0123576 0)
(0.984857 0.000450004 0)
(0.994049 0.00331885 0)
(0.996306 0.00339256 0)
(0.992996 0.00613582 0)
(0.99573 0.00706375 0)
(1.00042 0.00780875 0)
(1.00077 0.00825709 0)
(0.999644 0.00913884 0)
(1.00092 0.00962044 0)
(1.0025 0.0096316 0)
(1.00291 0.0112488 0)
(1.00343 0.0130085 0)
(1.00457 0.0139554 0)
(1.00512 0.0150615 0)
(1.00047 -0.0103455 0)
(0.987565 -0.00197785 0)
(0.992754 0.0090061 0)
(1.01215 0.00144141 0)
(1.00608 -0.0161023 0)
(0.989381 -0.0120073 0)
(0.985331 0.000310076 0)
(0.994175 0.00314246 0)
(0.996432 0.00324794 0)
(0.993305 0.00603926 0)
(0.995927 0.00695177 0)
(1.00055 0.00762186 0)
(1.00085 0.00819467 0)
(0.999617 0.00903848 0)
(1.00079 0.00952461 0)
(1.00243 0.00966292 0)
(1.00296 0.0111529 0)
(1.00347 0.0128567 0)
(1.00459 0.0138927 0)
(1.0052 0.014869 0)
(1.00025 -0.00996158 0)
(0.988163 -0.00207569 0)
(0.992887 0.0085134 0)
(1.01161 0.00116365 0)
(1.00582 -0.0153454 0)
(0.989914 -0.0116403 0)
(0.985852 0.000172548 0)
(0.994313 0.00296523 0)
(0.996517 0.00310189 0)
(0.99354 0.00593258 0)
(0.996064 0.006848 0)
(1.00064 0.00743753 0)
(1.00094 0.00813132 0)
(0.999614 0.00895267 0)
(1.00074 0.00942365 0)
(1.00241 0.0096744 0)
(1.00307 0.0110715 0)
(1.00357 0.0126757 0)
(1.00467 0.0137563 0)
(1.00529 0.0147086 0)
(1.00013 -0.00957085 0)
(0.988668 -0.0021816 0)
(0.993044 0.00801811 0)
(1.01101 0.000898739 0)
(1.00559 -0.0146114 0)
(0.99044 -0.0112647 0)
(0.986384 3.86932e-05 0)
(0.994465 0.0027859 0)
(0.996579 0.0029526 0)
(0.993735 0.00581482 0)
(0.996157 0.00675132 0)
(1.0007 0.00725388 0)
(1.00105 0.00806783 0)
(0.999623 0.00888861 0)
(1.00072 0.00931732 0)
(1.00243 0.00966046 0)
(1.00321 0.0110047 0)
(1.00369 0.0125019 0)
(1.00478 0.0135577 0)
(1.00539 0.0145085 0)
(1.00008 -0.00917446 0)
(0.989117 -0.00228449 0)
(0.993198 0.00751994 0)
(1.01036 0.000646761 0)
(1.00535 -0.0139046 0)
(0.990963 -0.0108777 0)
(0.986905 -8.61682e-05 0)
(0.994627 0.00260322 0)
(0.996635 0.00279848 0)
(0.993911 0.00568434 0)
(0.996214 0.00665852 0)
(1.00075 0.007065 0)
(1.00115 0.00799639 0)
(0.999636 0.0088494 0)
(1.00071 0.00921451 0)
(1.00246 0.00961865 0)
(1.00335 0.0109372 0)
(1.00381 0.0123535 0)
(1.0049 0.0133438 0)
(1.00549 0.0142365 0)
(1.00008 -0.00877358 0)
(0.989551 -0.00238686 0)
(0.993334 0.0070219 0)
(1.00969 0.000402467 0)
(1.00511 -0.0132224 0)
(0.991481 -0.010484 0)
(0.987408 -0.000195791 0)
(0.99479 0.00242269 0)
(0.996698 0.00264054 0)
(0.994083 0.00554406 0)
(0.996245 0.00656798 0)
(1.00078 0.00686859 0)
(1.00125 0.00790544 0)
(0.999648 0.00882686 0)
(1.00071 0.00912323 0)
(1.0025 0.00955598 0)
(1.00351 0.0108495 0)
(1.00393 0.0122067 0)
(1.005 0.0131512 0)
(1.00559 0.0139257 0)
(1.00009 -0.00836959 0)
(0.990001 -0.00248388 0)
(0.993451 0.00652159 0)
(1.00903 0.000173095 0)
(1.00483 -0.0125597 0)
(0.99199 -0.0100963 0)
(0.987896 -0.000290485 0)
(0.994944 0.00225251 0)
(0.996775 0.00247912 0)
(0.994256 0.00540021 0)
(0.996257 0.00648815 0)
(1.0008 0.00667098 0)
(1.00135 0.00779004 0)
(0.999661 0.00881507 0)
(1.0007 0.00904286 0)
(1.00255 0.00947888 0)
(1.00366 0.0107506 0)
(1.00405 0.012031 0)
(1.00508 0.0129631 0)
(1.00568 0.0136295 0)
(1.00011 -0.00796539 0)
(0.990481 -0.00257214 0)
(0.993559 0.00602134 0)
(1.00839 -3.99158e-05 0)
(1.00453 -0.0119203 0)
(0.992484 -0.00971615 0)
(0.988374 -0.000377169 0)
(0.995085 0.00209287 0)
(0.99687 0.00231049 0)
(0.994437 0.00525021 0)
(0.996256 0.0064256 0)
(1.00081 0.00647866 0)
(1.00144 0.00764964 0)
(0.999675 0.00881387 0)
(1.00068 0.00897688 0)
(1.00261 0.00938006 0)
(1.00381 0.0106628 0)
(1.00417 0.0118451 0)
(1.00516 0.012738 0)
(1.00575 0.0133643 0)
(1.0001 -0.00756016 0)
(0.99099 -0.00265865 0)
(0.993667 0.00553194 0)
(1.00777 -0.00024894 0)
(1.00422 -0.0112977 0)
(0.992959 -0.00935011 0)
(0.988846 -0.000457978 0)
(0.995209 0.00194452 0)
(0.996978 0.00213092 0)
(0.994626 0.00508056 0)
(0.996245 0.00637685 0)
(1.00081 0.00629396 0)
(1.00154 0.00748075 0)
(0.999695 0.00881816 0)
(1.00063 0.00893951 0)
(1.00267 0.00925464 0)
(1.00396 0.0105758 0)
(1.00429 0.011695 0)
(1.00523 0.0124709 0)
(1.00581 0.0130941 0)
(1.00009 -0.00715526 0)
(0.991515 -0.00274005 0)
(0.993782 0.00505182 0)
(1.00717 -0.000457472 0)
(1.00389 -0.0106852 0)
(0.993414 -0.0089982 0)
(0.989313 -0.000535435 0)
(0.995314 0.00180961 0)
(0.997095 0.0019475 0)
(0.994828 0.00488294 0)
(0.99623 0.00633581 0)
(1.00079 0.00612462 0)
(1.00165 0.00727676 0)
(0.999728 0.00880605 0)
(1.00057 0.00893258 0)
(1.00273 0.00911107 0)
(1.00411 0.0104492 0)
(1.00439 0.0115888 0)
(1.00529 0.0122031 0)
(1.00586 0.012781 0)
(1.00006 -0.0067539 0)
(0.992047 -0.00281577 0)
(0.993906 0.00458652 0)
(1.00659 -0.000669127 0)
(1.00356 -0.0100864 0)
(0.993848 -0.00865636 0)
(0.989776 -0.000609314 0)
(0.995403 0.0016981 0)
(0.997211 0.00177574 0)
(0.995042 0.00465793 0)
(0.996214 0.0062965 0)
(1.00076 0.00598549 0)
(1.00177 0.00704171 0)
(0.999779 0.00876095 0)
(1.00049 0.00895131 0)
(1.00278 0.00897189 0)
(1.00429 0.0102649 0)
(1.00448 0.0114948 0)
(1.00532 0.0119833 0)
(1.0059 0.0124355 0)
(1.00002 -0.00635456 0)
(0.992576 -0.0028927 0)
(0.994037 0.0041462 0)
(1.00602 -0.000887116 0)
(1.00324 -0.00949711 0)
(0.994265 -0.00832219 0)
(0.990234 -0.000693742 0)
(0.995477 0.00161375 0)
(0.997318 0.00162419 0)
(0.995269 0.00440953 0)
(0.996204 0.00625485 0)
(1.0007 0.00588997 0)
(1.0019 0.00679115 0)
(0.999854 0.00867737 0)
(1.00039 0.00898969 0)
(1.0028 0.00885287 0)
(1.00447 0.0100346 0)
(1.00458 0.0113731 0)
(1.00531 0.011822 0)
(1.00591 0.0121025 0)
(0.999987 -0.00595649 0)
(0.993096 -0.00297303 0)
(0.994172 0.00373317 0)
(1.00548 -0.00111313 0)
(1.00291 -0.00892205 0)
(0.99466 -0.00799367 0)
(0.990689 -0.000791218 0)
(0.995542 0.00154486 0)
(0.99741 0.00149351 0)
(0.995507 0.00413495 0)
(0.996204 0.00619138 0)
(1.00062 0.00583292 0)
(1.00202 0.00654081 0)
(0.999956 0.00854979 0)
(1.00029 0.00903943 0)
(1.00279 0.00876017 0)
(1.00465 0.00977804 0)
(1.0047 0.0112072 0)
(1.00527 0.0116982 0)
(1.00587 0.0118125 0)
(0.999948 -0.00556294 0)
(0.993606 -0.00305363 0)
(0.994308 0.003351 0)
(1.00495 -0.0013577 0)
(1.0026 -0.00837406 0)
(0.995035 -0.00765622 0)
(0.99114 -0.000906863 0)
(0.9956 0.00147757 0)
(0.997482 0.00138918 0)
(0.995751 0.00384561 0)
(0.996218 0.00609306 0)
(1.00052 0.00580404 0)
(1.00213 0.00630294 0)
(1.00009 0.00837404 0)
(1.00017 0.00908706 0)
(1.00273 0.008696 0)
(1.00483 0.00950168 0)
(1.00484 0.0109918 0)
(1.00521 0.0115944 0)
(1.00578 0.0115712 0)
(0.99991 -0.00517275 0)
(0.994105 -0.0031432 0)
(0.994443 0.00300566 0)
(1.00443 -0.0016039 0)
(1.00229 -0.00785938 0)
(0.995385 -0.00729537 0)
(0.991584 -0.00104605 0)
(0.995657 0.00139982 0)
(0.997536 0.00131589 0)
(0.995997 0.0035575 0)
(0.996251 0.00595559 0)
(1.0004 0.00579237 0)
(1.00222 0.00608406 0)
(1.00025 0.00814733 0)
(1.00006 0.0091185 0)
(1.00262 0.0086713 0)
(1.00498 0.00920974 0)
(1.00501 0.0107096 0)
(1.00514 0.0114973 0)
(1.00563 0.0113874 0)
(0.999872 -0.00478558 0)
(0.994592 -0.00323954 0)
(0.994577 0.00268458 0)
(1.00393 -0.00182266 0)
(1.002 -0.00739215 0)
(0.995711 -0.00690981 0)
(0.992018 -0.0011734 0)
(0.995716 0.00131065 0)
(0.99757 0.00127341 0)
(0.996241 0.00328198 0)
(0.996303 0.00577881 0)
(1.00026 0.00578398 0)
(1.0023 0.00589188 0)
(1.00043 0.00787532 0)
(0.99997 0.00912065 0)
(1.00246 0.00870056 0)
(1.0051 0.00893208 0)
(1.00522 0.010342 0)
(1.0051 0.0113658 0)
(1.00544 0.0112706 0)
(0.999836 -0.00440752 0)
(0.995068 -0.00333347 0)
(0.994713 0.00237926 0)
(1.00344 -0.00200527 0)
(1.00172 -0.00698485 0)
(0.996015 -0.00650103 0)
(0.99244 -0.00129405 0)
(0.995779 0.00120305 0)
(0.997587 0.00125317 0)
(0.996478 0.00303192 0)
(0.996375 0.00557841 0)
(1.00012 0.00576211 0)
(1.00234 0.0057211 0)
(1.00065 0.00756544 0)
(0.99991 0.00907329 0)
(1.00224 0.00877232 0)
(1.00513 0.00871374 0)
(1.00545 0.00990683 0)
(1.0051 0.0111464 0)
(1.00521 0.0112013 0)
(0.999802 -0.00403572 0)
(0.995531 -0.00342997 0)
(0.994852 0.0020862 0)
(1.00297 -0.00213805 0)
(1.00147 -0.00665622 0)
(0.996301 -0.00608982 0)
(0.992845 -0.0013967 0)
(0.995851 0.00105988 0)
(0.997591 0.0012346 0)
(0.996706 0.00280918 0)
(0.996466 0.00536986 0)
(0.999965 0.00572517 0)
(1.00235 0.00556584 0)
(1.00088 0.00723095 0)
(0.999896 0.00896563 0)
(1.002 0.00885413 0)
(1.00508 0.00857271 0)
(1.00567 0.00944731 0)
(1.00518 0.0108103 0)
(1.00499 0.0111174 0)
(0.99977 -0.00367286 0)
(0.995982 -0.00352541 0)
(0.994998 0.00179118 0)
(1.0025 -0.00219295 0)
(1.00123 -0.00640045 0)
(0.996576 -0.00570117 0)
(0.993232 -0.00145255 0)
(0.995931 0.000891329 0)
(0.997589 0.00120973 0)
(0.996926 0.00261889 0)
(0.996577 0.00515706 0)
(0.999805 0.00568093 0)
(1.00232 0.00542826 0)
(1.00112 0.0068797 0)
(0.999937 0.00879802 0)
(1.00174 0.00892127 0)
(1.00494 0.00850197 0)
(1.00585 0.00901516 0)
(1.00532 0.0103724 0)
(1.00481 0.0109533 0)
(0.99974 -0.00332501 0)
(0.996417 -0.00360764 0)
(0.995158 0.00148755 0)
(1.00205 -0.00217272 0)
(1.00101 -0.00618833 0)
(0.996847 -0.00534788 0)
(0.9936 -0.00144718 0)
(0.996019 0.000729266 0)
(0.997587 0.00117304 0)
(0.997136 0.00245932 0)
(0.996706 0.00495089 0)
(0.999645 0.0056328 0)
(1.00225 0.00531691 0)
(1.00137 0.00651268 0)
(1.00004 0.00856098 0)
(1.0015 0.00895125 0)
(1.0047 0.00848292 0)
(1.00596 0.00865004 0)
(1.00552 0.00987299 0)
(1.00472 0.0106812 0)
(0.999713 -0.00299185 0)
(0.996837 -0.00367259 0)
(0.995335 0.00117252 0)
(1.00161 -0.00210004 0)
(1.0008 -0.00598741 0)
(0.997122 -0.00505883 0)
(0.993952 -0.00139561 0)
(0.996109 0.000596168 0)
(0.997589 0.00111659 0)
(0.997344 0.00231095 0)
(0.996854 0.00475851 0)
(0.99949 0.00557842 0)
(1.00213 0.00524437 0)
(1.00161 0.00614999 0)
(1.00021 0.00824645 0)
(1.00128 0.00891534 0)
(1.00439 0.00849569 0)
(1.00597 0.00836941 0)
(1.00572 0.00935869 0)
(1.00472 0.0103106 0)
(0.999689 -0.00267738 0)
(0.997239 -0.00371258 0)
(0.995532 0.000841671 0)
(1.00118 -0.00198722 0)
(1.00059 -0.00576683 0)
(0.997404 -0.00484276 0)
(0.994296 -0.00131205 0)
(0.996198 0.000503097 0)
(0.997592 0.00105 0)
(0.997553 0.00216352 0)
(0.997025 0.00456569 0)
(0.999349 0.00551262 0)
(1.00196 0.00520846 0)
(1.00182 0.0058177 0)
(1.00043 0.00785946 0)
(1.00112 0.00878384 0)
(1.00404 0.00850759 0)
(1.00588 0.00817573 0)
(1.0059 0.00887244 0)
(1.0048 0.00986432 0)
(0.999668 -0.00238482 0)
(0.997621 -0.00372071 0)
(0.995751 0.000491551 0)
(1.00078 -0.00185326 0)
(1.00038 -0.00549651 0)
(0.997695 -0.00470492 0)
(0.99464 -0.0012078 0)
(0.996284 0.000474536 0)
(0.997597 0.000996139 0)
(0.997764 0.0020055 0)
(0.99722 0.0043502 0)
(0.999232 0.0054307 0)
(1.00176 0.00520315 0)
(1.00198 0.00553687 0)
(1.00069 0.00742033 0)
(1.00104 0.00854742 0)
(1.00368 0.00846976 0)
(1.00568 0.00805069 0)
(1.00603 0.00844899 0)
(1.00494 0.0093684 0)
(0.999652 -0.00211699 0)
(0.997978 -0.00369526 0)
(0.995993 0.000129654 0)
(1.00042 -0.00171263 0)
(1.00017 -0.00516229 0)
(0.997993 -0.0046251 0)
(0.995 -0.00112365 0)
(0.996367 0.000515064 0)
(0.99759 0.000980096 0)
(0.997973 0.00184307 0)
(0.997443 0.00410437 0)
(0.99915 0.00531544 0)
(1.00154 0.00521265 0)
(1.00208 0.00531509 0)
(1.00097 0.00696377 0)
(1.00102 0.00823027 0)
(1.00334 0.00836019 0)
(1.0054 0.00795764 0)
(1.00605 0.00811262 0)
(1.00511 0.0088537 0)
(0.999639 -0.00187793 0)
(0.998309 -0.00363239 0)
(0.996254 -0.000237728 0)
(1.00009 -0.00158007 0)
(0.999947 -0.00476826 0)
(0.99829 -0.004561 0)
(0.995386 -0.00109005 0)
(0.996458 0.000590104 0)
(0.997569 0.00101277 0)
(0.998171 0.00169672 0)
(0.997692 0.00383006 0)
(0.999115 0.00515596 0)
(1.0013 0.00522752 0)
(1.00212 0.00515545 0)
(1.00124 0.00652081 0)
(1.00108 0.00785158 0)
(1.00304 0.00818201 0)
(1.00508 0.00785035 0)
(1.00598 0.00786058 0)
(1.00525 0.00837514 0)
(0.999631 -0.00166564 0)
(0.998611 -0.00353535 0)
(0.996533 -0.000610018 0)
(0.999819 -0.00147137 0)
(0.999714 -0.00432931 0)
(0.998573 -0.00448299 0)
(0.995802 -0.00113754 0)
(0.99657 0.000672939 0)
(0.997533 0.00111171 0)
(0.998349 0.00158838 0)
(0.997962 0.00353126 0)
(0.999138 0.00493941 0)
(1.00108 0.00522487 0)
(1.00209 0.00505929 0)
(1.00149 0.00612413 0)
(1.00121 0.00742438 0)
(1.00281 0.00794249 0)
(1.00476 0.00770209 0)
(1.00583 0.00765278 0)
(1.00534 0.00797411 0)
(0.999627 -0.00148261 0)
(0.998882 -0.00339901 0)
(0.996826 -0.00097197 0)
(0.999601 -0.00140529 0)
(0.999472 -0.00387149 0)
(0.998827 -0.00434382 0)
(0.996247 -0.00126772 0)
(0.996724 0.000729191 0)
(0.997487 0.00127448 0)
(0.998491 0.00154639 0)
(0.998239 0.00324463 0)
(0.999222 0.00467186 0)
(1.00089 0.00517189 0)
(1.00201 0.00501065 0)
(1.00169 0.00580559 0)
(1.00137 0.00698103 0)
(1.00265 0.00765098 0)
(1.00444 0.00752005 0)
(1.00563 0.00745313 0)
(1.00535 0.00765475 0)
(0.999626 -0.001335 0)
(0.999119 -0.00322385 0)
(0.997124 -0.00129905 0)
(0.999445 -0.00139144 0)
(0.999236 -0.00341546 0)
(0.999037 -0.00412643 0)
(0.996709 -0.00144454 0)
(0.996937 0.000722725 0)
(0.997446 0.00146377 0)
(0.99859 0.00157029 0)
(0.998506 0.00299068 0)
(0.99936 0.00436344 0)
(1.00075 0.00505453 0)
(1.00191 0.00496427 0)
(1.00184 0.00555978 0)
(1.00156 0.00655569 0)
(1.00257 0.00730909 0)
(1.00416 0.00730924 0)
(1.0054 0.00724267 0)
(1.0053 0.00737721 0)
(0.999629 -0.00120673 0)
(0.999325 -0.00303719 0)
(0.997418 -0.00159741 0)
(0.999348 -0.00142968 0)
(0.999014 -0.00296066 0)
(0.999196 -0.0038261 0)
(0.99717 -0.00161203 0)
(0.997218 0.00062585 0)
(0.997427 0.00164936 0)
(0.998644 0.00167183 0)
(0.998742 0.00279714 0)
(0.99954 0.00403892 0)
(1.00067 0.00488901 0)
(1.00181 0.00489836 0)
(1.00193 0.00536495 0)
(1.00174 0.00618004 0)
(1.00254 0.0069392 0)
(1.00393 0.0070662 0)
(1.00517 0.00702642 0)
(1.00523 0.00709156 0)
(0.999634 -0.0011061 0)
(0.999494 -0.0028015 0)
(0.997703 -0.00183192 0)
(0.999319 -0.00155434 0)
(0.998824 -0.00256231 0)
(0.999299 -0.00347964 0)
(0.997604 -0.00172643 0)
(0.997564 0.000435956 0)
(0.997458 0.00177945 0)
(0.998661 0.00181608 0)
(0.998928 0.00267017 0)
(0.999741 0.00371524 0)
(1.00066 0.00466744 0)
(1.00171 0.00479874 0)
(1.00198 0.00518785 0)
(1.0019 0.00584793 0)
(1.00256 0.00656873 0)
(1.00375 0.00678261 0)
(1.00493 0.0068159 0)
(1.00513 0.00680996 0)
(0.999646 -0.00104017 0)
(0.999634 -0.00261616 0)
(0.997951 -0.00195733 0)
(0.999336 -0.00165252 0)
(0.998675 -0.00219007 0)
(0.99936 -0.00308283 0)
(0.997993 -0.00174949 0)
(0.997958 0.000194679 0)
(0.997554 0.00182083 0)
(0.998659 0.00196612 0)
(0.999055 0.00262274 0)
(0.999939 0.00343863 0)
(1.00071 0.00440607 0)
(1.00165 0.00466978 0)
(1.002 0.00503279 0)
(1.00203 0.00555418 0)
(1.0026 0.00621821 0)
(1.00362 0.00645834 0)
(1.00471 0.00657963 0)
(1.00499 0.00654744 0)
(0.99965 -0.000951652 0)
(0.999757 -0.00243008 0)
(0.998193 -0.00213849 0)
(0.999403 -0.00181237 0)
(0.998566 -0.00185539 0)
(0.999379 -0.00263373 0)
(0.998313 -0.00165897 0)
(0.998376 -5.53571e-05 0)
(0.997728 0.00174731 0)
(0.998668 0.00208469 0)
(0.999132 0.00262907 0)
(1.00011 0.00321705 0)
(1.00079 0.00412234 0)
(1.00163 0.00448508 0)
(1.00201 0.00488017 0)
(1.00214 0.00528855 0)
(1.00264 0.00589339 0)
(1.00354 0.00612621 0)
(1.00453 0.00630295 0)
(1.00483 0.00631022 0)
(0.999668 -0.000896967 0)
(0.999835 -0.002249 0)
(0.998385 -0.00216044 0)
(0.999536 -0.00194456 0)
(0.998541 -0.0016119 0)
(0.999386 -0.00222983 0)
(0.99856 -0.00149556 0)
(0.99878 -0.000269282 0)
(0.997973 0.00156271 0)
(0.998711 0.00214355 0)
(0.999168 0.00266504 0)
(1.00024 0.00305807 0)
(1.0009 0.00386327 0)
(1.00166 0.00425946 0)
(1.00203 0.00470456 0)
(1.00223 0.00504665 0)
(1.00269 0.00558966 0)
(1.00348 0.00581299 0)
(1.0044 0.00599271 0)
(1.00469 0.00605686 0)
(0.999669 -0.000852067 0)
(0.999922 -0.00206664 0)
(0.998564 -0.00204532 0)
(0.999663 -0.00205466 0)
(0.998541 -0.00149754 0)
(0.999378 -0.00190516 0)
(0.998736 -0.0012934 0)
(0.999139 -0.000410114 0)
(0.998271 0.00132551 0)
(0.998812 0.00211491 0)
(0.999185 0.00270198 0)
(1.00032 0.00295074 0)
(1.001 0.00363393 0)
(1.00171 0.0040188 0)
(1.00206 0.0044905 0)
(1.00229 0.0048046 0)
(1.00272 0.0052966 0)
(1.00342 0.00551562 0)
(1.00428 0.00567909 0)
(1.00457 0.0057559 0)
(0.999683 -0.000786504 0)
(0.999983 -0.00189021 0)
(0.998678 -0.00197591 0)
(0.999791 -0.00214242 0)
(0.998606 -0.00142936 0)
(0.999393 -0.00161376 0)
(0.99886 -0.00106071 0)
(0.999438 -0.000465388 0)
(0.99859 0.00109898 0)
(0.998971 0.00199322 0)
(0.999204 0.00270677 0)
(1.00036 0.00287785 0)
(1.00107 0.00343074 0)
(1.00178 0.00377871 0)
(1.00211 0.00426372 0)
(1.00236 0.00455417 0)
(1.00276 0.00501305 0)
(1.00337 0.00522892 0)
(1.00417 0.00539622 0)
(1.00447 0.00544121 0)
(0.999685 -0.00072319 0)
(1.00004 -0.00177029 0)
(0.998788 -0.00183769 0)
(0.999916 -0.00213942 0)
(0.998697 -0.00139408 0)
(0.999416 -0.00139127 0)
(0.998937 -0.000828959 0)
(0.999672 -0.000446496 0)
(0.998901 0.000912763 0)
(0.999181 0.00181606 0)
(0.999252 0.00266327 0)
(1.00037 0.00282662 0)
(1.00111 0.00327135 0)
(1.00184 0.00354534 0)
(1.00215 0.00404035 0)
(1.00242 0.00431004 0)
(1.0028 0.00473613 0)
(1.00332 0.00494172 0)
(1.00404 0.00513524 0)
(1.00436 0.00514635 0)
(0.999693 -0.000678979 0)
(1.00009 -0.00163913 0)
(0.998855 -0.00166507 0)
(1.00001 -0.00208646 0)
(0.998816 -0.00138185 0)
(0.999476 -0.00123293 0)
(0.998994 -0.000614229 0)
(0.999844 -0.000373621 0)
(0.999177 0.000782177 0)
(0.999419 0.00161926 0)
(0.999335 0.00255931 0)
(1.00035 0.00276367 0)
(1.00111 0.0031494 0)
(1.00189 0.00333048 0)
(1.00221 0.00380252 0)
(1.00248 0.00406995 0)
(1.00283 0.00446913 0)
(1.0033 0.00465475 0)
(1.00392 0.00487777 0)
(1.00423 0.00488438 0)
(0.999691 -0.000599518 0)
(1.00015 -0.00155069 0)
(0.998927 -0.00155795 0)
(1.00009 -0.00200487 0)
(0.998932 -0.00134883 0)
(0.999551 -0.00111124 0)
(0.999037 -0.000423349 0)
(0.999963 -0.000277118 0)