/*--------------------------------*- C++ -*----------------------------------*\
| =========                 |                                                 |
| \\      /  F ield         | OpenFOAM: The Open Source CFD Toolbox           |
|  \\    /   O peration     | Version:  2506                                  |
|   \\  /    A nd           | Website:  www.openfoam.com                      |
|    \\/     M anipulation  |                                                 |
\*---------------------------------------------------------------------------*/
FoamFile
{
    version     2.0;
    format      ascii;
    arch        "LSB;label=32;scalar=64";
    class       volScalarField;
    location    "5.15";
    object      p;
}
// * * * * * * * * * * * * * * * * * * * * * * * * * * * * * * * * * * * * * //

dimensions      [0 2 -2 0 0 0 0];

internalField   nonuniform List<scalar> 
9600
(
1.55108e-10
0.00717189
0.0129508
0.00922028
0.00650816
0.0139376
0.0143265
0.0127466
0.0168259
0.0195397
0.0166156
0.0167145
0.0180209
0.0187139
0.0180938
0.0190642
0.0193614
0.0200531
0.02189
0.0234443
6.44377e-06
0.00715643
0.0129383
0.00923797
0.00653278
0.0138887
0.0143187
0.0127542
0.0168144
0.019539
0.0166194
0.0167196
0.0180163
0.0187095
0.0181092
0.0190625
0.0193689
0.0200397
0.021898
0.023203
6.54092e-06
0.0071374
0.0129424
0.00924904
0.00653508
0.0138204
0.0143218
0.0127669
0.0168011
0.0195363
0.0166258
0.0167246
0.0180122
0.0187104
0.018134
0.0190538
0.0193794
0.0200133
0.0218861
0.0228915
8.99433e-07
0.00714971
0.012959
0.0092576
0.00652533
0.0137621
0.0143366
0.0127872
0.0167916
0.0195173
0.0166311
0.016728
0.0180118
0.0187103
0.018155
0.0190422
0.0193854
0.0199837
0.0218432
0.0226106
-4.14205e-06
0.00719886
0.0129796
0.00926915
0.00651542
0.0137195
0.0143583
0.0128181
0.016786
0.0194752
0.0166369
0.0167287
0.0180103
0.0187033
0.0181731
0.0190278
0.0193903
0.0199462
0.0217854
0.0223699
-2.30778e-06
0.00727691
0.0129944
0.00928634
0.00651392
0.0136921
0.0143814
0.0128591
0.0167822
0.0194122
0.0166443
0.016724
0.0180049
0.018692
0.0181918
0.0190106
0.019395
0.0199016
0.0217194
0.0221561
1.22147e-05
0.00737237
0.0129935
0.00930901
0.006528
0.0136774
0.0143995
0.0129078
0.0167789
0.0193362
0.0166519
0.0167143
0.017998
0.0186804
0.0182114
0.0189902
0.0193993
0.0198532
0.0216429
0.0219605
4.44157e-05
0.00747318
0.0130009
0.00933529
0.00656249
0.01367
0.0144082
0.0129617
0.0167757
0.0192551
0.0166587
0.0167019
0.0179913
0.0186692
0.0182312
0.0189672
0.0194029
0.0198024
0.0215525
0.0217802
9.73571e-05
0.00756944
0.0129534
0.00936305
0.00661999
0.0136645
0.0144069
0.0130176
0.016773
0.019174
0.0166647
0.0166887
0.0179851
0.0186586
0.0182508
0.0189417
0.0194037
0.01975
0.0214464
0.0216134
0.000171698
0.00765723
0.0128893
0.00938991
0.00670152
0.013659
0.014398
0.013072
0.0167704
0.0190952
0.0166699
0.016675
0.0179792
0.0186481
0.0182699
0.0189143
0.0193999
0.0196964
0.0213244
0.0214578
0.000265834
0.00773761
0.0128155
0.00941383
0.00680649
0.0136541
0.0143845
0.0131218
0.0167679
0.0190192
0.0166741
0.0166614
0.0179739
0.0186379
0.018288
0.0188856
0.0193898
0.019642
0.0211882
0.02131
0.000376583
0.0078133
0.0127372
0.00943405
0.00693225
0.0136502
0.014369
0.0131656
0.0167647
0.0189454
0.0166772
0.0166483
0.0179698
0.0186284
0.0183049
0.0188564
0.0193722
0.0195863
0.0210402
0.0211667
0.000500227
0.00788674
0.0126573
0.00945092
0.00707418
0.0136467
0.0143534
0.0132038
0.0167607
0.0188736
0.016679
0.0166359
0.017967
0.0186203
0.0183201
0.0188273
0.0193468
0.0195287
0.0208834
0.0210258
0.000633491
0.00795932
0.0125771
0.00946526
0.00722709
0.0136426
0.0143387
0.0132375
0.0167554
0.0188039
0.0166793
0.016624
0.0179653
0.0186137
0.0183334
0.018798
0.0193141
0.0194682
0.0207201
0.0208861
0.00077407
0.00803165
0.0124971
0.00947776
0.00738663
0.0136371
0.0143252
0.0132677
0.0167488
0.0187367
0.0166778
0.0166118
0.0179635
0.0186088
0.0183445
0.0187678
0.0192747
0.0194045
0.0205523
0.0207471
0.000920648
0.00810393
0.0124177
0.00948875
0.00754992
0.0136299
0.0143131
0.0132954
0.016741
0.0186723
0.016674
0.0165987
0.0179608
0.0186056
0.0183534
0.0187352
0.0192292
0.0193375
0.0203813
0.0206075
0.00107265
0.00817621
0.012339
0.00949842
0.00771542
0.0136214
0.0143026
0.0133213
0.0167319
0.0186111
0.0166676
0.0165842
0.0179568
0.0186037
0.0183604
0.0186991
0.0191777
0.0192676
0.0202083
0.020466
0.00122992
0.00824847
0.0122618
0.00950699
0.00788244
0.0136121
0.0142939
0.0133461
0.016721
0.0185535
0.0166585
0.016568
0.0179512
0.0186025
0.0183659
0.0186589
0.0191196
0.0191951
0.0200345
0.0203221
0.00139248
0.00832071
0.0121865
0.00951477
0.00805058
0.0136027
0.0142872
0.0133703
0.0167081
0.0184996
0.0166466
0.0165501
0.0179445
0.0186013
0.0183703
0.0186149
0.0190541
0.0191202
0.0198617
0.0201757
0.00156043
0.00839291
0.0121138
0.0095221
0.00821944
0.0135938
0.0142825
0.0133941
0.0166925
0.0184495
0.0166322
0.0165301
0.0179372
0.0185993
0.0183735
0.0185673
0.0189809
0.0190432
0.0196913
0.0200264
0.00173387
0.00846499
0.0120444
0.00952938
0.00838851
0.0135858
0.0142797
0.013418
0.0166738
0.0184035
0.0166157
0.0165076
0.0179298
0.0185962
0.018375
0.0185167
0.0188998
0.0189645
0.0195247
0.0198728
0.00191291
0.00853687
0.0119788
0.00953707
0.00855715
0.013579
0.0142789
0.0134423
0.0166516
0.0183616
0.0165977
0.0164821
0.0179226
0.0185919
0.018374
0.018464
0.0188112
0.0188837
0.0193635
0.0197138
0.00209766
0.00860841
0.0119176
0.00954558
0.00872463
0.0135738
0.0142798
0.0134673
0.0166258
0.0183234
0.0165791
0.016453
0.017916
0.0185867
0.0183692
0.0184098
0.0187154
0.0187996
0.0192104
0.0195496
0.00228821
0.00867945
0.0118612
0.00955543
0.00889023
0.0135705
0.0142823
0.0134932
0.0165963
0.0182888
0.0165605
0.0164198
0.0179098
0.0185811
0.0183596
0.0183545
0.0186133
0.0187108
0.019068
0.0193823
0.00248462
0.00874985
0.0118098
0.00956712
0.00905326
0.0135693
0.0142865
0.01352
0.016563
0.0182572
0.0165429
0.0163821
0.0179035
0.0185761
0.0183445
0.0182976
0.018506
0.0186157
0.018938
0.0192171
0.00268689
0.00881952
0.0117637
0.0095812
0.00921305
0.0135703
0.0142922
0.0135478
0.0165264
0.0182281
0.016527
0.0163394
0.0178962
0.0185726
0.0183232
0.0182386
0.0183954
0.0185124
0.0188195
0.0190621
0.00289503
0.00888843
0.0117232
0.00959827
0.00936892
0.0135736
0.0142997
0.0135764
0.0164865
0.0182014
0.0165136
0.0162913
0.0178874
0.0185718
0.0182951
0.0181767
0.0182842
0.0183989
0.0187074
0.0189256
0.00310902
0.00895662
0.0116882
0.00961904
0.00952028
0.0135794
0.0143093
0.0136056
0.0164435
0.0181769
0.0165031
0.0162373
0.0178763
0.0185745
0.0182602
0.0181107
0.0181758
0.0182759
0.0185921
0.0188101
0.0033288
0.00902421
0.0116588
0.00964427
0.00966681
0.0135873
0.0143213
0.0136353
0.0163971
0.0181543
0.0164963
0.0161772
0.0178617
0.0185822
0.0182192
0.0180386
0.0180728
0.0181484
0.0184648
0.0187076
0.00355424
0.00909142
0.0116349
0.00967462
0.00980836
0.013597
0.0143363
0.0136658
0.0163469
0.0181332
0.0164939
0.0161105
0.0178417
0.0185962
0.018174
0.0179576
0.0179751
0.0180237
0.0183238
0.0186033
0.00378519
0.00915853
0.0116166
0.00971065
0.00994482
0.0136084
0.014355
0.0136976
0.0162925
0.018113
0.0164972
0.0160369
0.0178135
0.0186179
0.0181278
0.0178655
0.01788
0.0179073
0.0181755
0.018484
0.00402152
0.00922588
0.0116038
0.0097529
0.0100764
0.0136207
0.0143775
0.0137315
0.0162335
0.0180928
0.0165074
0.0159571
0.0177744
0.0186468
0.0180836
0.0177624
0.0177848
0.0178003
0.0180286
0.0183455
0.0042629
0.00929387
0.0115965
0.00980167
0.0102036
0.013633
0.0144034
0.0137689
0.0161697
0.0180708
0.0165261
0.0158726
0.0177213
0.0186816
0.0180444
0.017648
0.017689
0.0177029
0.0178876
0.0181924
0.00450896
0.009363
0.0115948
0.00985706
0.0103269
0.0136459
0.0144322
0.0138112
0.0161011
0.0180453
0.0165544
0.0157851
0.0176512
0.0187207
0.0180139
0.0175214
0.0175918
0.0176186
0.0177542
0.0180303
0.00475943
0.00943369
0.0115987
0.00991936
0.0104471
0.013651
0.014463
0.0138593
0.0160287
0.0180139
0.0165924
0.0156971
0.0175612
0.0187614
0.0179972
0.0173817
0.0174879
0.0175533
0.0176332
0.0178612
0.00501397
0.00950626
0.0116087
0.00998846
0.0105648
0.013653
0.0144945
0.0139143
0.0159541
0.0179743
0.0166391
0.0156126
0.0174496
0.0187987
0.0179995
0.0172319
0.0173687
0.0175084
0.0175353
0.0176891
0.00527232
0.00958087
0.0116255
0.0100642
0.0106798
0.0136539
0.0145254
0.0139764
0.0158795
0.0179244
0.0166925
0.0155356
0.0173162
0.0188266
0.0180241
0.0170789
0.0172251
0.0174771
0.0174728
0.0175252
0.00553433
0.00965751
0.0116497
0.0101468
0.0107921
0.0136548
0.014554
0.0140446
0.0158081
0.0178628
0.0167496
0.0154699
0.0171627
0.0188388
0.0180731
0.0169324
0.0170516
0.0174461
0.0174521
0.0173866
0.00579987
0.00973604
0.0116825
0.0102363
0.0109011
0.0136566
0.0145792
0.0141175
0.0157425
0.0177898
0.016807
0.0154185
0.0169914
0.0188288
0.0181459
0.0168031
0.0168469
0.0174003
0.0174717
0.0172912
0.006069
0.00981607
0.0117248
0.010333
0.0110054
0.0136613
0.0146016
0.0141923
0.015684
0.0177066
0.0168618
0.0153825
0.0168059
0.01879
0.0182392
0.0167034
0.0166144
0.0173236
0.0175219
0.0172532
0.00634193
0.00989693
0.0117773
0.0104384
0.0111031
0.0136702
0.0146226
0.0142663
0.0156325
0.017615
0.0169115
0.0153632
0.016611
0.0187158
0.0183453
0.0166465
0.0163644
0.0171996
0.0175853
0.0172812
0.00661887
0.00997821
0.0118396
0.0105544
0.0111929
0.0136819
0.0146444
0.0143381
0.0155877
0.0175169
0.0169552
0.0153617
0.0164118
0.0186002
0.0184517
0.0166441
0.016117
0.0170172
0.0176354
0.0173724
0.00690005
0.0100574
0.0119105
0.010684
0.0112746
0.0136941
0.0146694
0.0144076
0.0155483
0.0174131
0.0169924
0.01538
0.0162144
0.0184398
0.0185431
0.0167006
0.0158973
0.0167784
0.0176414
0.0175063
0.00718588
0.010136
0.0119877
0.0108305
0.0113497
0.0137021
0.0146998
0.0144761
0.015511
0.0173024
0.0170227
0.0154199
0.0160255
0.0182358
0.0186044
0.0168091
0.0157296
0.0165008
0.0175792
0.0176508
0.00747661
0.0102144
0.0120681
0.0109972
0.0114208
0.0137007
0.0147375
0.0145465
0.015473
0.0171835
0.0170447
0.015482
0.0158525
0.0179933
0.0186227
0.0169551
0.0156322
0.0162109
0.0174401
0.0177697
0.00777237
0.0102936
0.012148
0.0111852
0.0114921
0.0136855
0.0147809
0.0146236
0.0154346
0.0170546
0.0170549
0.0155661
0.0157046
0.0177212
0.018587
0.0171197
0.0156141
0.0159368
0.0172313
0.0178328
0.00807318
0.0103749
0.0122239
0.0113936
0.0115692
0.0136536
0.0148264
0.0147136
0.0153999
0.0169134
0.0170481
0.0156698
0.0155925
0.0174332
0.0184904
0.0172804
0.0156728
0.0157073
0.0169715
0.017823
0.00837861
0.0104604
0.0122929
0.0116198
0.0116596
0.0136046
0.0148673
0.0148194
0.0153733
0.0167604
0.0170187
0.0157856
0.0155249
0.0171461
0.0183358
0.0174131
0.0157918
0.0155459
0.0166875
0.0177355
0.00868798
0.0105526
0.0123531
0.0118579
0.0117714
0.0135412
0.0148916
0.0149387
0.0153639
0.0166025
0.0169615
0.0159021
0.0155038
0.0168772
0.0181365
0.0175014
0.0159464
0.0154632
0.0164103
0.0175761
0.00900041
0.010654
0.012403
0.0120995
0.0119117
0.0134703
0.0148871
0.0150656
0.0153823
0.0164485
0.0168751
0.0160076
0.0155248
0.0166417
0.0179085
0.01754
0.0161112
0.0154522
0.0161691
0.0173618
0.00931479
0.0107674
0.0124425
0.0123358
0.0120842
0.0134022
0.014847
0.0151903
0.0154336
0.0163099
0.0167639
0.0160892
0.0155773
0.016451
0.0176676
0.0175309
0.0162676
0.0154962
0.0159844
0.0171217
0.0096297
0.0108954
0.0124729
0.0125583
0.0122893
0.013349
0.014772
0.0152949
0.015515
0.0162026
0.016639
0.016137
0.0156473
0.0163096
0.0174306
0.0174797
0.016404
0.0155764
0.015862
0.0168898
0.00994327
0.0110398
0.0124979
0.0127602
0.0125209
0.0133236
0.0146674
0.01536
0.015618
0.0161396
0.0165141
0.0161501
0.0157185
0.016212
0.0172137
0.0173961
0.0165126
0.015676
0.0157933
0.016693
0.0102536
0.0112012
0.0125234
0.0129366
0.0127682
0.0133362
0.0145431
0.015375
0.015729
0.0161242
0.0164059
0.016137
0.0157777
0.0161472
0.0170246
0.0172936
0.0165922
0.0157848
0.0157649
0.0165391
0.010559
0.0113795
0.0125555
0.0130843
0.013017
0.0133919
0.0144181
0.0153401
0.0158261
0.0161507
0.016331
0.0161093
0.0158191
0.0161034
0.0168621
0.0171832
0.0166462
0.0158984
0.0157693
0.0164194
0.0108584
0.011573
0.0126007
0.0132027
0.0132539
0.0134907
0.0143155
0.0152632
0.0158865
0.0162088
0.0162995
0.0160803
0.0158436
0.0160724
0.0167247
0.0170719
0.0166776
0.0160111
0.0158048
0.0163271
0.0111506
0.0117797
0.0126627
0.013294
0.0134684
0.0136263
0.0142535
0.0151574
0.0158984
0.0162787
0.0163107
0.0160661
0.0158561
0.0160475
0.016611
0.0169652
0.0166895
0.0161143
0.0158682
0.0162671
0.0114347
0.0119965
0.0127446
0.0133642
0.0136538
0.0137866
0.0142405
0.0150464
0.0158637
0.016335
0.0163567
0.01608
0.0158662
0.0160231
0.0165158
0.0168687
0.0166888
0.0162025
0.0159488
0.0162448
0.0117094
0.0122171
0.0128485
0.0134257
0.0138067
0.013956
0.0142738
0.014955
0.0157927
0.0163591
0.0164228
0.0161254
0.0158873
0.016002
0.0164322
0.0167826
0.016685
0.0162785
0.0160338
0.016256
0.0119745
0.0124384
0.0129729
0.0134865
0.0139289
0.0141214
0.0143491
0.0148984
0.0157007
0.0163449
0.0164887
0.0161972
0.015928
0.0159921
0.0163587
0.0167007
0.0166801
0.0163512
0.0161201
0.0162919
0.0122308
0.0126566
0.013114
0.0135541
0.0140256
0.0142763
0.0144552
0.0148804
0.0156091
0.0162982
0.0165379
0.0162878
0.0159903
0.0159988
0.0163014
0.0166211
0.0166672
0.0164235
0.0162129
0.0163476
0.0124784
0.012869
0.0132676
0.0136341
0.0141033
0.0144124
0.0145774
0.014899
0.0155354
0.0162295
0.0165601
0.016385
0.0160759
0.016024
0.016264
0.0165525
0.0166425
0.0164864
0.0163118
0.0164193
0.0127177
0.0130744
0.0134283
0.0137278
0.0141701
0.0145242
0.0147029
0.014949
0.0154889
0.0161532
0.0165549
0.0164745
0.0161833
0.0160728
0.0162455
0.0165024
0.0166156
0.0165338
0.0164096
0.0165023
0.0129488
0.0132723
0.0135908
0.0138349
0.0142339
0.0146141
0.0148233
0.0150243
0.0154734
0.0160844
0.0165297
0.0165449
0.0163017
0.0161508
0.0162491
0.0164696
0.0165971
0.0165704
0.0165018
0.0165946
0.0131714
0.0134621
0.0137512
0.0139528
0.0143003
0.0146869
0.0149328
0.015115
0.0154872
0.0160343
0.0164951
0.0165949
0.0164179
0.016255
0.016284
0.0164538
0.0165877
0.0166017
0.0165855
0.016694
0.0133849
0.0136444
0.0139064
0.0140774
0.0143726
0.014748
0.0150281
0.0152109
0.0155252
0.0160077
0.0164623
0.0166305
0.0165251
0.0163745
0.0163541
0.0164641
0.0165901
0.0166341
0.0166602
0.016795
0.013588
0.0138177
0.0140551
0.0142049
0.0144519
0.0148023
0.0151089
0.0153067
0.0155846
0.0160064
0.0164384
0.0166573
0.0166229
0.0164988
0.0164509
0.0165097
0.0166138
0.0166765
0.0167328
0.0168946
0.0137811
0.0139832
0.014194
0.0143302
0.0145376
0.0148548
0.015176
0.0153968
0.0156588
0.0160312
0.0164312
0.0166821
0.0167147
0.0166275
0.0165673
0.016589
0.0166669
0.0167352
0.0168105
0.0169912
0.0139612
0.0141394
0.0143242
0.0144497
0.0146263
0.0149083
0.015233
0.0154776
0.0157382
0.0160766
0.0164472
0.0167144
0.0168043
0.0167644
0.0167061
0.0166995
0.0167528
0.0168171
0.0169013
0.0170908
0.014126
0.0142841
0.014447
0.0145616
0.0147169
0.014963
0.0152818
0.0155489
0.0158187
0.0161367
0.0164848
0.0167622
0.0168966
0.0169087
0.0168706
0.0168458
0.0168771
0.016934
0.017019
0.0172071
0.014278
0.0144195
0.0145551
0.01466
0.0148012
0.0150188
0.0153223
0.0156067
0.0158964
0.0162058
0.0165401
0.0168319
0.0170017
0.017062
0.0170617
0.0170369
0.0170499
0.0170981
0.0171802
0.0173592
0.0144111
0.0145412
0.0146548
0.0147469
0.0148767
0.0150732
0.0153576
0.0156479
0.0159626
0.0162796
0.016609
0.0169206
0.0171309
0.017235
0.0172822
0.0172798
0.0172823
0.0173182
0.0173945
0.0175646
0.0145229
0.0146467
0.0147454
0.0148225
0.0149398
0.0151202
0.0153875
0.0156751
0.0160037
0.0163453
0.0166888
0.0170301
0.0173003
0.0174546
0.0175481
0.0175797
0.0175745
0.0175903
0.0176552
0.017816
0.0146187
0.0147366
0.0148156
0.0148701
0.0149876
0.0151577
0.0154089
0.0156885
0.0160104
0.0163601
0.0167476
0.0171594
0.01754
0.0178152
0.0180079
0.0181209
0.0181329
0.0180834
0.0180287
0.0180378
0.0146939
0.0148037
0.0148665
0.0149106
0.0150257
0.0151839
0.0154168
0.0156879
0.0159976
0.0162849
0.0165919
0.0169977
0.0175169
0.0180011
0.0183738
0.0186886
0.0190001
0.019348
0.0197327
0.0200692
0.0147389
0.0148436
0.0149079
0.0149553
0.0150739
0.0152313
0.0154326
0.0156612
0.0160182
0.0165117
0.0170527
0.0175504
0.0179644
0.0183171
0.0186323
0.0189443
0.0192526
0.0195192
0.0197517
0.0199018
0.0147503
0.0148422
0.0148852
0.0149091
0.0150219
0.0152125
0.0155509
0.0159673
0.0164073
0.0168047
0.0171673
0.017504
0.0178245
0.0181453
0.0184934
0.0188655
0.0192897
0.0197418
0.0201678
0.0204845
0.0147283
0.0148646
0.0149668
0.0150708
0.0152734
0.0155162
0.0157956
0.0161014
0.0164516
0.0168351
0.0172368
0.0176468
0.0180384
0.0183634
0.0186268
0.018787
0.0188247
0.0187464
0.0185916
0.0184523
0.0146168
0.0147277
0.0149357
0.0151566
0.0153971
0.0156089
0.0158543
0.0161357
0.0164655
0.0168412
0.017235
0.017606
0.0179939
0.0183662
0.0187498
0.0191678
0.0196145
0.0200621
0.0204418
0.0206781
0.014585
0.014716
0.0149442
0.0152001
0.0154746
0.015709
0.0159673
0.0162494
0.0165567
0.0169047
0.017303
0.0176912
0.0180983
0.0184993
0.0188741
0.0192324
0.0195615
0.0198426
0.0200381
0.0200993
0.0266021
0.0232802
0.016444
0.011259
0.0103161
0.011959
0.0137508
0.0149154
0.0156126
0.0161046
0.0165672
0.0170802
0.0175918
0.0180618
0.0185854
0.019179
0.0196907
0.0200532
0.0203434
0.0206852
0.0211565
0.0216835
0.022148
0.0226028
0.0231539
0.0237576
0.0243196
0.0248462
0.0253656
0.0258839
0.0263934
0.0268906
0.0273824
0.0278716
0.0283616
0.02888
0.0294579
0.0300705
0.0306751
0.0312603
0.0318273
0.0323984
0.0330089
0.0336265
0.0342127
0.0347962
0.035408
0.0360201
0.0365875
0.0371559
0.0378123
0.0385339
0.0392291
0.0399286
0.0406881
0.0414843
0.042279
0.0430966
0.0438776
0.0445687
0.0452394
0.0460202
0.0469304
0.0478426
0.0487111
0.0495858
0.0504846
0.0513606
0.0522711
0.053209
0.0541721
0.0551541
0.0561777
0.0572001
0.0582392
0.0592926
0.060375
0.0614806
0.0626147
0.0637916
0.0649651
0.0661927
0.0674337
0.0687146
0.0699636
0.0712434
0.0725671
0.0739218
0.0753264
0.0767099
0.0781087
0.0795491
0.0809888
0.0825
0.0839879
0.0855345
0.0870635
0.0885511
0.0900412
0.091344
0.0260564
0.0231541
0.016531
0.0114015
0.0104059
0.0120041
0.0137798
0.0149356
0.0156271
0.0161154
0.0165756
0.0170873
0.0175979
0.0180669
0.0185898
0.0191832
0.0196947
0.0200568
0.0203464
0.0206876
0.0211587
0.0216857
0.02215
0.0226044
0.0231554
0.023759
0.024321
0.0248474
0.0253667
0.025885
0.0263944
0.0268916
0.0273833
0.0278726
0.0283625
0.0288808
0.0294587
0.0300713
0.0306759
0.0312611
0.0318281
0.0323991
0.0330095
0.0336272
0.0342134
0.0347968
0.0354086
0.0360207
0.0365881
0.0371564
0.0378127
0.0385344
0.0392296
0.039929
0.0406885
0.0414847
0.0422794
0.043097
0.043878
0.0445691
0.0452397
0.0460204
0.0469307
0.0478429
0.0487114
0.0495861
0.0504849
0.0513608
0.0522713
0.0532092
0.0541723
0.0551543
0.0561779
0.0572003
0.0582394
0.0592928
0.0603752
0.0614807
0.0626148
0.0637918
0.0649652
0.0661929
0.0674338
0.0687147
0.0699637
0.0712436
0.0725672
0.0739219
0.0753265
0.07671
0.0781088
0.0795492
0.0809889
0.0825001
0.083988
0.0855345
0.0870636
0.0885512
0.0900413
0.0913441
0.0255066
0.0230357
0.0167164
0.0116703
0.0105598
0.0120597
0.0138054
0.0149562
0.0156452
0.0161303
0.0165872
0.0170962
0.017605
0.0180727
0.0185946
0.0191874
0.0196986
0.0200604
0.0203495
0.0206902
0.0211609
0.0216877
0.0221518
0.022606
0.0231568
0.0237605
0.0243223
0.0248485
0.0253677
0.025886
0.0263953
0.0268924
0.0273841
0.0278733
0.0283633
0.0288815
0.0294594
0.030072
0.0306767
0.0312618
0.0318288
0.0323998
0.0330101
0.0336278
0.0342139
0.0347973
0.0354091
0.0360212
0.0365886
0.0371568
0.0378131
0.0385348
0.03923
0.0399293
0.0406888
0.041485
0.0422797
0.0430973
0.0438784
0.0445694
0.0452399
0.0460206
0.0469309
0.0478431
0.0487116
0.0495863
0.0504851
0.051361
0.0522715
0.0532093
0.0541724
0.0551545
0.056178
0.0572005
0.0582395
0.0592929
0.0603753
0.0614809
0.062615
0.0637919
0.0649653
0.066193
0.0674339
0.0687148
0.0699638
0.0712437
0.0725673
0.073922
0.0753266
0.0767101
0.0781089
0.0795493
0.0809889
0.0825002
0.0839881
0.0855346
0.0870637
0.0885513
0.0900414
0.0913443
0.0250053
0.02293
0.0169495
0.0120056
0.0107668
0.0121347
0.0138392
0.0149844
0.0156712
0.0161528
0.0166052
0.0171098
0.0176153
0.0180811
0.0186015
0.019193
0.0197034
0.020065
0.0203541
0.0206943
0.021164
0.0216901
0.0221539
0.022608
0.0231589
0.0237625
0.024324
0.02485
0.025369
0.0258871
0.0263964
0.0268933
0.0273849
0.027874
0.0283639
0.0288821
0.0294601
0.0300727
0.0306774
0.0312626
0.0318295
0.0324004
0.0330108
0.0336285
0.0342145
0.0347979
0.0354097
0.0360218
0.0365891
0.0371572
0.0378135
0.0385352
0.0392304
0.0399297
0.0406892
0.0414854
0.04228
0.0430977
0.0438788
0.0445698
0.0452401
0.0460207
0.0469311
0.0478434
0.0487118
0.0495865
0.0504853
0.0513612
0.0522717
0.0532095
0.0541726
0.0551546
0.0561782
0.0572006
0.0582397
0.059293
0.0603755
0.061481
0.0626151
0.063792
0.0649654
0.0661931
0.067434
0.068715
0.0699639
0.0712438
0.0725674
0.0739221
0.0753267
0.0767102
0.078109
0.0795494
0.080989
0.0825003
0.0839882
0.0855347
0.0870638
0.0885514
0.0900416
0.0913447
0.0245183
0.0228018
0.0171846
0.0123586
0.0109949
0.0122194
0.0138765
0.0150176
0.0157043
0.0161834
0.0166311
0.0171295
0.0176304
0.0180936
0.0186117
0.0192005
0.0197091
0.0200711
0.0203614
0.0207014
0.0211692
0.0216933
0.0221565
0.0226109
0.023162
0.0237652
0.0243262
0.024852
0.0253708
0.0258888
0.0263979
0.0268945
0.0273859
0.0278748
0.0283645
0.0288827
0.0294607
0.0300734
0.030678
0.0312632
0.0318302
0.0324012
0.0330115
0.0336291
0.0342152
0.0347986
0.0354104
0.0360225
0.0365896
0.0371577
0.0378139
0.0385357
0.0392309
0.0399301
0.0406895
0.0414857
0.0422803
0.0430981
0.0438793
0.0445702
0.0452403
0.0460208
0.0469314
0.0478438
0.0487121
0.0495867
0.0504855
0.0513614
0.0522718
0.0532097
0.0541728
0.0551548
0.0561784
0.0572008
0.0582398
0.0592932
0.0603756
0.0614812
0.0626152
0.0637922
0.0649656
0.0661932
0.0674342
0.0687151
0.0699641
0.0712439
0.0725675
0.0739222
0.0753268
0.0767103
0.0781091
0.0795495
0.0809891
0.0825004
0.0839883
0.0855348
0.0870639
0.0885515
0.0900418
0.0913452
0.0240316
0.0226403
0.0174109
0.0127176
0.0112357
0.0123101
0.0139139
0.015052
0.015741
0.016219
0.0166624
0.0171543
0.0176497
0.0181099
0.0186252
0.0192099
0.0197159
0.0200787
0.0203716
0.020712
0.0211771
0.021698
0.02216
0.0226149
0.0231662
0.0237689
0.0243291
0.0248545
0.0253733
0.0258913
0.0264001
0.0268963
0.0273872
0.0278756
0.0283651
0.0288833
0.0294613
0.0300739
0.0306785
0.0312638
0.031831
0.032402
0.0330122
0.0336298
0.0342161
0.0347995
0.0354113
0.0360232
0.0365902
0.0371582
0.0378144
0.0385362
0.0392314
0.0399305
0.04069
0.0414862
0.0422807
0.0430986
0.0438799
0.0445706
0.0452405
0.046021
0.0469317
0.0478442
0.0487124
0.049587
0.0504858
0.0513616
0.0522721
0.0532099
0.054173
0.055155
0.0561786
0.057201
0.05824
0.0592934
0.0603758
0.0614813
0.0626153
0.0637923
0.0649657
0.0661934
0.0674343
0.0687153
0.0699642
0.071244
0.0725676
0.0739223
0.075327
0.0767105
0.0781092
0.0795496
0.0809892
0.0825005
0.0839884
0.0855349
0.0870641
0.0885517
0.0900422
0.0913458
0.0235482
0.022451
0.0176288
0.0130812
0.0114886
0.012407
0.013951
0.0150865
0.01578
0.0162577
0.0166971
0.0171823
0.0176718
0.0181289
0.0186409
0.0192207
0.0197235
0.0200875
0.0203841
0.0207258
0.0211877
0.0217044
0.0221649
0.0226204
0.0231718
0.0237734
0.0243325
0.0248575
0.0253762
0.0258942
0.0264031
0.026899
0.0273892
0.027877
0.028366
0.028884
0.0294621
0.0300744
0.0306787
0.0312641
0.0318317
0.0324029
0.0330129
0.0336305
0.034217
0.0348007
0.0354124
0.036024
0.036591
0.037159
0.0378151
0.0385368
0.0392319
0.039931
0.0406905
0.0414866
0.0422812
0.0430991
0.0438806
0.0445711
0.0452408
0.0460212
0.0469321
0.0478446
0.0487128
0.0495873
0.0504862
0.0513619
0.0522723
0.0532102
0.0541732
0.0551552
0.0561788
0.0572012
0.0582402
0.0592935
0.0603759
0.0614815
0.0626155
0.0637925
0.0649659
0.0661935
0.0674345
0.0687154
0.0699644
0.0712441
0.0725678
0.0739224
0.0753271
0.0767106
0.0781093
0.0795497
0.0809893
0.0825006
0.0839885
0.085535
0.0870643
0.0885519
0.0900426
0.0913466
0.0230774
0.0222393
0.0178358
0.0134472
0.0117532
0.0125117
0.0139887
0.015121
0.0158211
0.0162992
0.0167342
0.0172123
0.0176958
0.0181496
0.0186582
0.0192327
0.0197318
0.0200971
0.020398
0.0207415
0.0212002
0.0217123
0.0221713
0.0226275
0.0231786
0.0237786
0.0243363
0.0248607
0.0253793
0.0258974
0.0264064
0.0269022
0.027392
0.027879
0.0283675
0.0288852
0.029463
0.030075
0.0306788
0.0312642
0.0318323
0.0324037
0.0330134
0.0336308
0.0342179
0.0348021
0.0354137
0.0360251
0.036592
0.0371601
0.037816
0.0385375
0.0392325
0.0399317
0.040691
0.041487
0.0422817
0.0430998
0.0438813
0.0445718
0.0452411
0.0460215
0.0469326
0.0478452
0.0487133
0.0495878
0.0504866
0.0513623
0.0522727
0.0532105
0.0541735
0.0551555
0.056179
0.0572014
0.0582404
0.0592937
0.0603761
0.0614816
0.0626156
0.0637926
0.064966
0.0661936
0.0674346
0.0687156
0.0699645
0.0712442
0.0725679
0.0739225
0.0753273
0.0767108
0.0781094
0.0795498
0.0809894
0.0825007
0.0839886
0.0855351
0.0870645
0.0885522
0.0900431
0.0913475
0.0226275
0.0220076
0.0180265
0.0138123
0.0120296
0.0126261
0.014028
0.0151552
0.0158638
0.0163434
0.0167737
0.0172442
0.0177211
0.0181716
0.0186768
0.0192459
0.0197409
0.0201073
0.0204126
0.0207582
0.0212138
0.0217213
0.0221788
0.0226357
0.0231865
0.0237844
0.0243405
0.0248641
0.0253825
0.0259006
0.0264097
0.0269057
0.0273954
0.0278819
0.0283697
0.028887
0.0294644
0.0300757
0.0306789
0.0312642
0.0318329
0.0324046
0.0330138
0.0336309
0.0342186
0.0348037
0.0354152
0.0360261
0.0365932
0.0371616
0.0378174
0.0385384
0.0392333
0.0399324
0.0406915
0.0414873
0.0422821
0.0431005
0.0438822
0.0445725
0.0452416
0.0460218
0.0469331
0.0478458
0.0487139
0.0495883
0.0504871
0.0513628
0.0522731
0.0532109
0.0541738
0.0551558
0.0561794
0.0572017
0.0582407
0.059294
0.0603763
0.0614818
0.0626158
0.0637928
0.0649662
0.0661938
0.0674348
0.0687158
0.0699647
0.0712443
0.0725681
0.0739226
0.0753275
0.0767109
0.0781095
0.07955
0.0809895
0.0825008
0.0839888
0.0855352
0.0870648
0.0885526
0.0900437
0.0913487
0.0222045
0.0217575
0.0181958
0.0141747
0.012319
0.0127523
0.0140696
0.0151884
0.0159075
0.0163902
0.0168157
0.0172777
0.0177476
0.0181946
0.0186964
0.01926
0.0197508
0.020118
0.0204276
0.0207754
0.021228
0.021731
0.0221872
0.022645
0.0231951
0.0237908
0.0243449
0.0248677
0.0253858
0.0259036
0.0264127
0.0269091
0.0273989
0.0278853
0.0283728
0.0288896
0.0294664
0.0300767
0.030679
0.0312641
0.0318334
0.0324054
0.033014
0.0336306
0.0342191
0.0348051
0.0354166
0.0360272
0.0365946
0.0371635
0.0378192
0.0385397
0.0392344
0.0399335
0.0406921
0.0414874
0.0422822
0.043101
0.043883
0.0445734
0.0452422
0.0460224
0.0469337
0.0478464
0.0487145
0.0495889
0.0504876
0.0513634
0.0522737
0.0532113
0.0541743
0.0551563
0.0561798
0.0572021
0.058241
0.0592943
0.0603766
0.0614821
0.062616
0.063793
0.0649663
0.0661939
0.067435
0.068716
0.0699649
0.0712445
0.0725682
0.0739228
0.0753276
0.0767111
0.0781097
0.0795501
0.0809897
0.082501
0.083989
0.0855353
0.0870651
0.0885531
0.0900445
0.09135
0.0218113
0.0214921
0.0183412
0.0145331
0.0126213
0.0128916
0.0141141
0.01522
0.0159515
0.0164394
0.0168602
0.0173129
0.017775
0.0182183
0.018717
0.0192752
0.0197615
0.0201291
0.0204429
0.020793
0.0212426
0.0217411
0.0221961
0.0226549
0.0232044
0.0237977
0.0243497
0.0248715
0.0253891
0.0259065
0.0264155
0.0269121
0.0274024
0.027889
0.0283764
0.0288929
0.0294689
0.030078
0.0306792
0.0312642
0.0318342
0.0324064
0.033014
0.0336301
0.0342194
0.0348064
0.0354178
0.0360279
0.0365958
0.0371657
0.0378213
0.0385413
0.0392361
0.0399352
0.0406931
0.0414874
0.042282
0.043101
0.0438835
0.0445741
0.0452429
0.0460231
0.0469345
0.0478472
0.0487152
0.0495895
0.0504882
0.051364
0.0522744
0.053212
0.0541749
0.0551569
0.0561803
0.0572026
0.0582415
0.0592948
0.060377
0.0614824
0.0626162
0.0637933
0.0649665
0.0661941
0.0674352
0.0687162
0.069965
0.0712446
0.0725684
0.0739229
0.0753278
0.0767113
0.0781098
0.0795503
0.0809898
0.0825011
0.0839893
0.0855353
0.0870655
0.0885538
0.0900453
0.0913515
0.0214494
0.0212166
0.0184619
0.0148851
0.0129348
0.013045
0.0141628
0.01525
0.0159952
0.0164911
0.0169075
0.0173499
0.0178034
0.0182427
0.0187383
0.0192912
0.0197729
0.0201409
0.0204587
0.0208109
0.0212576
0.0217516
0.0222056
0.0226656
0.0232145
0.023805
0.0243547
0.0248756
0.0253927
0.0259095
0.0264181
0.026915
0.0274058
0.0278928
0.0283804
0.0288968
0.0294719
0.0300796
0.0306796
0.0312643
0.031835
0.0324075
0.0330141
0.0336294
0.0342194
0.0348075
0.0354188
0.0360284
0.0365968
0.0371678
0.0378236
0.0385432
0.0392382
0.0399375
0.0406945
0.0414876
0.0422816
0.0431006
0.0438835
0.0445746
0.0452437
0.0460241
0.0469355
0.047848
0.0487159
0.0495901
0.0504888
0.0513647
0.0522751
0.0532127
0.0541756
0.0551576
0.056181
0.0572032
0.0582421
0.0592954
0.0603775
0.0614828
0.0626166
0.0637935
0.0649668
0.0661943
0.0674354
0.0687164
0.0699652
0.0712448
0.0725685
0.0739231
0.075328
0.0767115
0.07811
0.0795505
0.08099
0.0825012
0.0839896
0.0855354
0.087066
0.0885546
0.0900463
0.0913533
0.0211196
0.0209367
0.0185568
0.0152266
0.0132573
0.0132141
0.0142182
0.0152789
0.0160379
0.0165447
0.0169579
0.0173893
0.0178331
0.0182679
0.0187605
0.0193082
0.0197852
0.0201533
0.020475
0.0208293
0.0212731
0.0217626
0.0222157
0.022677
0.0232252
0.0238127
0.02436
0.0248798
0.0253964
0.0259125
0.0264208
0.0269178
0.0274091
0.0278966
0.0283847
0.0289011
0.0294753
0.0300814
0.03068
0.0312645
0.031836
0.0324088
0.0330143
0.0336286
0.0342193
0.0348084
0.0354195
0.0360285
0.0365976
0.0371699
0.0378259
0.0385452
0.0392405
0.0399402
0.0406965
0.0414881
0.042281
0.0430996
0.0438828
0.0445745
0.0452443
0.0460253
0.0469368
0.047849
0.0487167
0.0495907
0.0504893
0.0513654
0.052276
0.0532135
0.0541764
0.0551584
0.0561817
0.0572039
0.0582429
0.0592961
0.0603782
0.0614833
0.062617
0.0637939
0.0649671
0.0661946
0.0674357
0.0687167
0.0699655
0.0712449
0.0725686
0.0739232
0.0753282
0.0767117
0.0781102
0.0795506
0.0809902
0.0825014
0.0839899
0.0855354
0.0870665
0.0885556
0.0900474
0.0913552
0.0208214
0.0206566
0.0186245
0.015554
0.013587
0.0134003
0.0142828
0.0153074
0.016079
0.0165998
0.0170115
0.0174313
0.0178642
0.018294
0.0187837
0.0193263
0.0197984
0.0201663
0.0204917
0.0208483
0.0212893
0.0217745
0.0222267
0.0226895
0.0232368
0.023821
0.0243655