/*--------------------------------*- C++ -*----------------------------------*\
| =========                 |                                                 |
| \\      /  F ield         | OpenFOAM: The Open Source CFD Toolbox           |
|  \\    /   O peration     | Version:  2506                                  |
|   \\  /    A nd           | Website:  www.openfoam.com                      |
|    \\/     M anipulation  |                                                 |
\*---------------------------------------------------------------------------*/
FoamFile
{
    version     2.0;
    format      ascii;
    arch        "LSB;label=32;scalar=64";
    class       volVectorField;
    location    "5.15";
    object      U;
}
// * * * * * * * * * * * * * * * * * * * * * * * * * * * * * * * * * * * * * //

dimensions      [0 1 -1 0 0 0 0];

internalField   nonuniform List<vector> 
9600
(
(0.631705 -0.00865541 0)
(1.45932 0.0172567 0)
(0.45234 -0.0106342 0)
(1.24061 -0.0131936 0)
(0.828055 -0.00306604 0)
(1.38102 0.00990273 0)
(0.617133 0.00337152 0)
(1.30476 0.0022927 0)
(0.694387 -0.00747294 0)
(1.20739 0.00922579 0)
(0.769171 0.0103146 0)
(1.19224 0.0178116 0)
(0.812929 0.0124773 0)
(1.14807 0.0196723 0)
(0.860427 0.0165593 0)
(1.1523 0.0202067 0)
(0.864788 0.0168218 0)
(1.14645 0.0161136 0)
(0.861138 0.0150557 0)
(1.12961 0.0085362 0)
(0.639405 -0.00959715 0)
(1.45349 0.0184529 0)
(0.512942 -0.00909838 0)
(1.23037 -0.0165322 0)
(0.830214 -0.00529439 0)
(1.37802 0.0122133 0)
(0.636928 0.00372604 0)
(1.30043 0.00191234 0)
(0.714591 -0.00683788 0)
(1.20364 0.00906295 0)
(0.784644 0.010076 0)
(1.1821 0.0176323 0)
(0.838387 0.012863 0)
(1.1264 0.0194026 0)
(0.900307 0.0162476 0)
(1.11094 0.0201155 0)
(0.931349 0.0170781 0)
(1.07351 0.0157249 0)
(0.963041 0.0164995 0)
(1.01598 0.00724577 0)
(0.655035 -0.0104822 0)
(1.4409 0.0199572 0)
(0.601784 -0.00791013 0)
(1.20691 -0.0184439 0)
(0.835915 -0.0068396 0)
(1.37031 0.0147067 0)
(0.683958 0.00405145 0)
(1.28698 0.00161155 0)
(0.764576 -0.00608469 0)
(1.18546 0.00854023 0)
(0.827924 0.00998537 0)
(1.15051 0.0171719 0)
(0.894588 0.0136566 0)
(1.08251 0.0183962 0)
(0.957961 0.0163464 0)
(1.06081 0.0195639 0)
(0.988471 0.0178882 0)
(1.02836 0.0151934 0)
(1.0027 0.0174718 0)
(1.00275 0.00832232 0)
(0.6801 -0.0113131 0)
(1.41862 0.0206632 0)
(0.710271 -0.00645309 0)
(1.1691 -0.0196409 0)
(0.848131 -0.00872248 0)
(1.35313 0.0163737 0)
(0.760174 0.00453976 0)
(1.2567 0.00114824 0)
(0.841326 -0.00515373 0)
(1.14814 0.00792756 0)
(0.890866 0.0103397 0)
(1.10483 0.0163452 0)
(0.954094 0.0145863 0)
(1.04272 0.017345 0)
(0.996047 0.0166056 0)
(1.03303 0.0190426 0)
(1.0124 0.0185034 0)
(1.01816 0.015011 0)
(1.01142 0.018006 0)
(1.00977 0.00942033 0)
(0.715767 -0.0121874 0)
(1.38368 0.0205526 0)
(0.824122 -0.00464837 0)
(1.12058 -0.0201712 0)
(0.869164 -0.0108748 0)
(1.32201 0.0172537 0)
(0.855943 0.00540378 0)
(1.21108 0.000547146 0)
(0.923606 -0.00398319 0)
(1.10175 0.0074818 0)
(0.949674 0.0108907 0)
(1.0646 0.0154678 0)
(0.994563 0.0153929 0)
(1.02278 0.0168028 0)
(1.01165 0.0166915 0)
(1.02354 0.0187112 0)
(1.02043 0.0187946 0)
(1.02 0.0150993 0)
(1.01656 0.0182828 0)
(1.01602 0.0101858 0)
(0.761046 -0.013075 0)
(1.33521 0.0198177 0)
(0.925606 -0.00257476 0)
(1.06951 -0.0200451 0)
(0.896897 -0.0131844 0)
(1.27673 0.017311 0)
(0.951151 0.00660648 0)
(1.16151 4.80032e-05 0)
(0.986948 -0.00268927 0)
(1.06236 0.00734967 0)
(0.989347 0.0113341 0)
(1.04123 0.0148762 0)
(1.01548 0.0159445 0)
(1.01895 0.0166853 0)
(1.01761 0.0166644 0)
(1.02205 0.0184485 0)
(1.02471 0.0188893 0)
(1.02503 0.0152194 0)
(1.02275 0.0183795 0)
(1.02243 0.0109164 0)
(0.811858 -0.0139132 0)
(1.27594 0.0185916 0)
(1.00106 -0.000409708 0)
(1.02632 -0.019402 0)
(0.924441 -0.0155042 0)
(1.2229 0.01654 0)
(1.0268 0.00792921 0)
(1.12027 -5.36379e-05 0)
(1.02095 -0.0014415 0)
(1.03735 0.0074953 0)
(1.01022 0.0115745 0)
(1.03259 0.0145563 0)
(1.02554 0.0162387 0)
(1.02268 0.0167487 0)
(1.02259 0.0166496 0)
(1.0247 0.0181986 0)
(1.02919 0.0188274 0)
(1.03108 0.0152741 0)
(1.02949 0.0183847 0)
(1.02866 0.0117005 0)
(0.86196 -0.0146469 0)
(1.21169 0.0170729 0)
(1.04586 0.00170667 0)
(0.999043 -0.0184283 0)
(0.944772 -0.017655 0)
(1.1686 0.0151056 0)
(1.07403 0.00915494 0)
(1.09224 0.000373893 0)
(1.03046 -0.000321564 0)
(1.02329 0.00773925 0)
(1.0188 0.0116094 0)
(1.03098 0.0143231 0)
(1.0308 0.016343 0)
(1.02831 0.0168326 0)
(1.02842 0.0166603 0)
(1.02966 0.0179466 0)
(1.03422 0.0186725 0)
(1.0366 0.0152965 0)
(1.0353 0.0183615 0)
(1.03344 0.0125564 0)
(0.90538 -0.0152305 0)
(1.14923 0.0155265 0)
(1.06394 0.00356796 0)
(0.989323 -0.0172749 0)
(0.95568 -0.0194735 0)
(1.11952 0.0132696 0)
(1.09378 0.0101119 0)
(1.07493 0.0012525 0)
(1.02683 0.000691292 0)
(1.01405 0.00790273 0)
(1.02009 0.0114493 0)
(1.02996 0.014057 0)
(1.0327 0.0163073 0)
(1.03244 0.0168482 0)
(1.03331 0.0166619 0)
(1.03427 0.0177087 0)
(1.03818 0.0185086 0)
(1.03988 0.0153573 0)
(1.03847 0.0183527 0)
(1.03562 0.0134763 0)
(0.938641 -0.0156289 0)
(1.09444 0.014151 0)
(1.06377 0.0049637 0)
(0.992303 -0.0160659 0)
(0.960172 -0.0208007 0)
(1.07776 0.0112984 0)
(1.09223 0.0106983 0)
(1.06312 0.00237386 0)
(1.01985 0.00165308 0)
(1.00659 0.00794251 0)
(1.01665 0.011148 0)
(1.02611 0.0137279 0)
(1.03059 0.0161519 0)
(1.03275 0.0167658 0)
(1.03483 0.0166335 0)
(1.0358 0.017506 0)
(1.03899 0.0183793 0)
(1.03967 0.0154995 0)
(1.03804 0.0183697 0)
(1.03475 0.0144098 0)
(0.961389 -0.0158285 0)
(1.05128 0.0130231 0)
(1.05443 0.00585698 0)
(1.00064 -0.014902 0)
(0.962927 -0.0215894 0)
(1.04369 0.00939208 0)
(1.07733 0.0109192 0)
(1.05284 0.00349063 0)
(1.01433 0.00258256 0)
(1.00073 0.00794853 0)
(1.01039 0.010812 0)
(1.01885 0.0133602 0)
(1.02424 0.0158991 0)
(1.02835 0.0165912 0)
(1.03175 0.0165561 0)
(1.03298 0.0173342 0)
(1.03577 0.0182812 0)
(1.03583 0.0157165 0)
(1.03427 0.0183915 0)
(1.0313 0.0152827 0)
(0.97554 -0.0158447 0)
(1.02112 0.0121242 0)
(1.04278 0.00629486 0)
(1.00866 -0.0138763 0)
(0.966813 -0.021874 0)
(1.01776 0.00770165 0)
(1.05683 0.0108491 0)
(1.0426 0.00439654 0)
(1.01092 0.00345097 0)
(0.996813 0.00802892 0)
(1.00346 0.0105509 0)
(1.00979 0.013007 0)
(1.01509 0.0155853 0)
(1.02035 0.016335 0)
(1.0249 0.0164135 0)
(1.0266 0.0171715 0)
(1.02942 0.0181818 0)
(1.02956 0.0159562 0)
(1.02849 0.0183831 0)
(1.02641 0.0160253 0)
(0.983855 -0.015718 0)
(1.00266 0.0113958 0)
(1.03252 0.00639344 0)
(1.01387 -0.0130248 0)
(0.972084 -0.0217697 0)
(1.00026 0.00630783 0)
(1.03691 0.010587 0)
(1.03255 0.00500085 0)
(1.00851 0.00421455 0)
(0.994578 0.0082205 0)
(0.997821 0.0104218 0)
(1.00155 0.0127183 0)
(1.00596 0.0152476 0)
(1.01146 0.0160242 0)
(1.01675 0.0162044 0)
(1.01894 0.016994 0)
(1.02205 0.0180463 0)
(1.02271 0.0161562 0)
(1.0224 0.0183157 0)
(1.02139 0.0165917 0)
(0.988807 -0.0154974 0)
(0.992834 0.010782 0)
(1.02462 0.00628585 0)
(1.01615 -0.0123409 0)
(0.97766 -0.0214126 0)
(0.990282 0.00521714 0)
(1.0211 0.0102396 0)
(1.02338 0.00532643 0)
(1.00601 0.004845 0)
(0.993305 0.00848942 0)
(0.994473 0.0104125 0)
(0.996194 0.01251 0)
(0.99948 0.0149184 0)
(1.00455 0.0157034 0)
(1.01004 0.0159443 0)
(1.01244 0.016792 0)
(1.01579 0.0178663 0)
(1.01699 0.0162828 0)
(1.01737 0.0181817 0)
(1.01722 0.0169749 0)
(0.992048 -0.015225 0)
(0.988253 0.0102473 0)
(1.01875 0.00607607 0)
(1.01637 -0.0118006 0)
(0.982549 -0.0209083 0)
(0.985655 0.00438885 0)
(1.01026 0.00990168 0)
(1.01563 0.00546194 0)
(1.00308 0.00533927 0)
(0.992392 0.0087723 0)
(0.993338 0.0104608 0)
(0.994228 0.01236 0)
(0.996698 0.0146159 0)
(1.00105 0.0154049 0)
(1.00629 0.0156647 0)
(1.00853 0.0165769 0)
(1.01181 0.0176672 0)
(1.01328 0.0163465 0)
(1.01404 0.017998 0)
(1.01434 0.0172079 0)
(0.994423 -0.014929 0)
(0.986326 0.00977412 0)
(1.01429 0.00582853 0)
(1.01552 -0.0113708 0)
(0.986367 -0.0203358 0)
(0.983908 0.00375611 0)
(1.0035 0.00962335 0)
(1.00953 0.00549606 0)
(1.00005 0.00570972 0)
(0.991617 0.00901145 0)
(0.9937 0.010494 0)
(0.994774 0.0122301 0)
(0.996928 0.0143319 0)
(1.0006 0.0151392 0)
(1.00538 0.0154008 0)
(1.00717 0.0163708 0)
(1.01012 0.0174836 0)
(1.01153 0.0163814 0)
(1.01235 0.0177963 0)
(1.01269 0.017344 0)
(0.996249 -0.0146236 0)
(0.985568 0.00934916 0)
(1.01088 0.00558029 0)
(1.01425 -0.0110321 0)
(0.989159 -0.0197328 0)
(0.983237 0.00325851 0)
(0.999427 0.00941135 0)
(1.00509 0.00548957 0)
(0.997394 0.00597679 0)
(0.991055 0.00917638 0)
(0.994793 0.0104634 0)
(0.996504 0.0120882 0)
(0.998644 0.0140485 0)
(1.0018 0.0149028 0)
(1.00612 0.0151758 0)
(1.00744 0.0161861 0)
(1.00994 0.0173313 0)
(1.01111 0.01642 0)
(1.0118 0.0176082 0)
(1.01196 0.0174275 0)
(0.99761 -0.0143138 0)
(0.98531 0.0089605 0)
(1.00836 0.00534463 0)
(1.01294 -0.0107653 0)
(0.991103 -0.0191143 0)
(0.982779 0.00285148 0)
(0.996906 0.00924645 0)
(1.00216 0.00547221 0)
(0.995493 0.00616012 0)
(0.990847 0.00926541 0)
(0.996098 0.0103557 0)
(0.998389 0.0119216 0)
(1.0005 0.013762 0)
(1.00326 0.0146831 0)
(1.00722 0.0149945 0)
(1.0082 0.0160204 0)
(1.01032 0.0172078 0)
(1.01127 0.0164781 0)
(1.01181 0.0174477 0)
(1.01175 0.0174763 0)
(0.998547 -0.0140001 0)
(0.985303 0.00859617 0)
(1.00662 0.00512372 0)
(1.01179 -0.0105506 0)
(0.992366 -0.0184822 0)
(0.982345 0.00250717 0)
(0.995254 0.00910237 0)
(1.00044 0.0054508 0)
(0.994431 0.00627595 0)
(0.991038 0.00929418 0)
(0.997338 0.0101844 0)
(0.999923 0.0117379 0)
(1.0018 0.0134815 0)
(1.00418 0.0144697 0)
(1.00788 0.0148462 0)
(1.00873 0.0158689 0)
(1.0106 0.0171017 0)
(1.01147 0.0165503 0)
(1.01196 0.0173077 0)
(1.01176 0.0174932 0)
(0.999118 -0.0136806 0)
(0.985458 0.00824235 0)
(1.00551 0.00491822 0)
(1.01089 -0.0103688 0)
(0.993091 -0.0178381 0)
(0.982024 0.00220556 0)
(0.994139 0.00895644 0)
(0.999602 0.00542325 0)
(0.994071 0.00633945 0)
(0.991555 0.0092832 0)
(0.998381 0.00997509 0)
(1.00099 0.0115517 0)
(1.00239 0.0132213 0)
(1.00441 0.0142593 0)
(1.00786 0.0147169 0)
(1.00876 0.0157262 0)
(1.01052 0.0169946 0)
(1.01146 0.0166182 0)
(1.01199 0.0171726 0)
(1.01178 0.0174772 0)
(0.999406 -0.0133535 0)
(0.985733 0.00788803 0)
(1.00485 0.00472588 0)
(1.01024 -0.010202 0)
(0.993416 -0.0171854 0)
(0.981918 0.00193488 0)
(0.993399 0.00879407 0)
(0.999356 0.00538528 0)
(0.994173 0.00635991 0)
(0.992259 0.00925104 0)
(0.999175 0.0097531 0)
(1.00166 0.0113708 0)
(1.00246 0.0129951 0)
(1.00413 0.0140522 0)
(1.00732 0.0145969 0)
(1.00838 0.0155871 0)
(1.0101 0.016865 0)
(1.01122 0.0166654 0)
(1.01186 0.017031 0)
(1.01175 0.0174176 0)
(0.999496 -0.0130173 0)
(0.98611 0.00752492 0)
(1.00441 0.00454136 0)
(1.00983 -0.0100376 0)
(0.993481 -0.0165274 0)
(0.98206 0.00168627 0)
(0.992924 0.00860763 0)
(0.999461 0.00533534 0)
(0.994504 0.00634364 0)
(0.993011 0.00921093 0)
(0.999719 0.00953836 0)
(1.00206 0.0111985 0)
(1.00222 0.0128102 0)
(1.00362 0.0138493 0)
(1.00656 0.0144774 0)
(1.0078 0.0154505 0)
(1.0095 0.016702 0)
(1.01083 0.0166814 0)
(1.01159 0.0168827 0)
(1.01164 0.0172972 0)
(0.999456 -0.0126716 0)
(0.986577 0.007149 0)
(1.00405 0.00436197 0)
(1.0096 -0.0098686 0)
(0.993417 -0.0158676 0)
(0.982421 0.00145354 0)
(0.992623 0.00839365 0)
(0.99974 0.00527416 0)
(0.994899 0.00629974 0)
(0.993707 0.00916835 0)
(1.00005 0.00934346 0)
(1.00229 0.0110346 0)
(1.00189 0.0126649 0)
(1.0031 0.0136543 0)
(1.00581 0.0143502 0)
(1.00723 0.0153148 0)
(1.0089 0.0165094 0)
(1.0104 0.0166589 0)
(1.01128 0.0167349 0)
(1.0115 0.0171087 0)
(0.999334 -0.0123167 0)
(0.987123 0.00675925 0)
(1.00365 0.00418569 0)
(1.00947 -0.00968752 0)
(0.993324 -0.0152101 0)
(0.982949 0.00123557 0)
(0.992429 0.00815292 0)
(1.00006 0.00520371 0)
(0.99527 0.0062366 0)
(0.994289 0.00912451 0)
(1.00024 0.00917591 0)
(1.00243 0.010873 0)
(1.00158 0.0125523 0)
(1.00267 0.0134707 0)
(1.00521 0.0142114 0)
(1.00677 0.0151796 0)
(1.00841 0.0162964 0)
(1.01003 0.0165927 0)
(1.01099 0.0165921 0)
(1.01136 0.0168624 0)
(0.999162 -0.0119535 0)
(0.987731 0.00635932 0)
(1.00321 0.00400955 0)
(1.00938 -0.00949355 0)
(0.993269 -0.014558 0)
(0.98359 0.0010319 0)
(0.992306 0.00788935 0)
(1.00035 0.00512577 0)
(0.995589 0.00615976 0)
(0.994736 0.00907847 0)
(1.00032 0.00903744 0)
(1.00254 0.0107048 0)
(1.00133 0.0124652 0)
(1.00237 0.0132981 0)
(1.00479 0.0140573 0)
(1.00647 0.0150471 0)
(1.00808 0.016073 0)
(1.00975 0.0164825 0)
(1.01075 0.0164591 0)
(1.01122 0.016585 0)
(0.998966 -0.0115835 0)
(0.988377 0.00595308 0)
(1.00274 0.00383264 0)
(1.00925 -0.00928912 0)
(0.993287 -0.0139157 0)
(0.984293 0.000843377 0)
(0.992246 0.00760831 0)
(1.00054 0.00503971 0)
(0.995864 0.00607523 0)
(0.995058 0.00902849 0)
(1.00036 0.00892136 0)
(1.00264 0.010527 0)
(1.00118 0.0123939 0)
(1.00217 0.0131327 0)
(1.00456 0.0138838 0)
(1.00631 0.0149146 0)
(1.0079 0.0158456 0)
(1.00956 0.0163275 0)
(1.01057 0.0163426 0)
(1.01111 0.0163189 0)
(0.998772 -0.0112065 0)
(0.989028 0.00553945 0)
(1.00229 0.00365609 0)
(1.00907 -0.00907395 0)
(0.99339 -0.0132865 0)
(0.985015 0.000673509 0)
(0.992251 0.00731499 0)
(1.00063 0.00494651 0)
(0.99611 0.00598873 0)
(0.995278 0.00897339 0)
(1.00038 0.00882043 0)
(1.00274 0.0103428 0)
(1.00111 0.012327 0)
(1.00204 0.0129727 0)
(1.00445 0.0136904 0)
(1.00625 0.0147748 0)
(1.00784 0.0156186 0)
(1.00946 0.0161181 0)
(1.01045 0.0162293 0)
(1.011 0.0161131 0)
(0.998602 -0.0108239 0)
(0.989652 0.00512072 0)
(1.00188 0.00347947 0)
(1.00881 -0.00884675 0)
(0.993571 -0.0126772 0)
(0.985724 0.000518644 0)
(0.992319 0.00701617 0)
(1.00064 0.0048457 0)
(0.99634 0.00589927 0)
(0.995427 0.0089153 0)
(1.0004 0.0087338 0)
(1.00286 0.0101551 0)
(1.0011 0.0122599 0)
(1.00197 0.0128225 0)
(1.00443 0.0134787 0)
(1.00625 0.0146241 0)
(1.00784 0.0154024 0)
(1.00942 0.0158565 0)
(1.01038 0.0160751 0)
(1.01089 0.0159814 0)
(0.998475 -0.0104367 0)
(0.990228 0.00469988 0)
(1.00153 0.00330038 0)
(1.00849 -0.00860633 0)
(0.99381 -0.0120903 0)
(0.986404 0.000375516 0)
(0.992437 0.00672004 0)
(1.00058 0.00473253 0)
(0.996559 0.00580197 0)
(0.995533 0.00885736 0)
(1.00041 0.00866026 0)
(1.00299 0.00995888 0)
(1.00114 0.0121939 0)
(1.00192 0.0126914 0)
(1.00445 0.0132479 0)
(1.00629 0.0144582 0)
(1.00786 0.0152088 0)
(1.0094 0.0155751 0)
(1.01034 0.0158489 0)
(1.01079 0.0158773 0)
(0.998398 -0.010046 0)
(0.990748 0.00427967 0)
(1.00122 0.00311978 0)
(1.00812 -0.00835444 0)
(0.994084 -0.0115213 0)
(0.987053 0.000243809 0)
(0.992587 0.00643144 0)
(1.00049 0.00460596 0)
(0.996766 0.00569408 0)
(0.995616 0.0087942 0)
(1.00041 0.00859364 0)
(1.00313 0.00974855 0)
(1.00121 0.0121259 0)
(1.00189 0.0125881 0)
(1.00448 0.0130009 0)
(1.00635 0.0142662 0)
(1.00789 0.0150345 0)
(1.00939 0.0153104 0)
(1.01033 0.0155638 0)
(1.0107 0.0157281 0)
(0.99837 -0.00965044 0)
(0.991216 0.00385807 0)
(1.00095 0.0029373 0)
(1.00772 -0.00809253 0)
(0.994374 -0.0109709 0)
(0.987677 0.000119509 0)
(0.992751 0.00615654 0)
(1.00039 0.00447343 0)
(0.996959 0.00557229 0)
(0.995691 0.00872237 0)
(1.0004 0.00853411 0)
(1.00329 0.00952293 0)
(1.0013 0.0120405 0)
(1.00185 0.0125105 0)
(1.00452 0.0127488 0)
(1.00644 0.0140414 0)
(1.00791 0.0148601 0)
(1.00937 0.0150706 0)
(1.01033 0.0152625 0)
(1.01064 0.015495 0)
(0.998384 -0.00925116 0)
(0.991645 0.00343667 0)
(1.00068 0.00275323 0)
(1.00732 -0.00782163 0)
(0.994665 -0.0104392 0)
(0.988283 -6.06684e-06 0)
(0.992914 0.00589849 0)
(1.00028 0.00434592 0)
(0.997138 0.00543347 0)
(0.995765 0.00864768 0)
(1.00037 0.00848952 0)
(1.00345 0.00928458 0)
(1.00142 0.0119249 0)
(1.00181 0.0124529 0)
(1.00455 0.0125054 0)
(1.00653 0.0137928 0)
(1.00792 0.0146771 0)
(1.00933 0.0148349 0)
(1.01031 0.0149773 0)
(1.01061 0.0151982 0)
(0.998428 -0.00885178 0)
(0.992051 0.00302713 0)
(1.00042 0.00256329 0)
(1.00691 -0.00754331 0)
(0.994951 -0.00991612 0)
(0.988877 -0.000131682 0)
(0.993072 0.00565236 0)
(1.00019 0.00422829 0)
(0.997306 0.00527707 0)
(0.995842 0.0085694 0)
(1.00032 0.0084623 0)
(1.0036 0.00903941 0)
(1.00156 0.0117803 0)
(1.00176 0.0124175 0)
(1.00456 0.0122784 0)
(1.00664 0.0135277 0)
(1.00793 0.0145024 0)
(1.00927 0.0145889 0)
(1.01027 0.0146984 0)
(1.01058 0.0148847 0)
(0.998491 -0.00845075 0)
(0.992444 0.002625 0)
(1.00015 0.00236991 0)
(1.00651 -0.00725509 0)
(0.995229 -0.00940904 0)
(0.98946 -0.00026195 0)
(0.993222 0.00540889 0)
(1.00009 0.00412042 0)
(0.997468 0.0051026 0)
(0.995924 0.00847324 0)
(1.00025 0.00845025 0)
(1.00375 0.00879315 0)
(1.00172 0.0116051 0)
(1.00171 0.0124026 0)
(1.00455 0.012071 0)
(1.00676 0.0132329 0)
(1.00794 0.0143466 0)
(1.00919 0.0143555 0)
(1.01022 0.0143958 0)
(1.01056 0.0145773 0)
(0.998563 -0.0080477 0)
(0.992831 0.00222796 0)
(0.999874 0.00218061 0)
(1.0061 -0.00697124 0)
(0.995498 -0.00891832 0)
(0.990034 -0.000400383 0)
(0.993367 0.00516391 0)
(1 0.00402047 0)
(0.997627 0.00491156 0)
(0.996017 0.00834326 0)
(1.00015 0.00845247 0)
(1.00389 0.00855171 0)
(1.00191 0.011386 0)
(1.00164 0.0123951 0)
(1.00451 0.0118944 0)
(1.00688 0.0128973 0)
(1.00795 0.0141836 0)
(1.00908 0.0141708 0)
(1.01014 0.0140662 0)
(1.01055 0.0142536 0)
(0.998639 -0.00764619 0)
(0.993216 0.00184229 0)
(0.999597 0.00199695 0)
(1.0057 -0.0067008 0)
(0.995757 -0.00842531 0)
(0.990596 -0.00053478 0)
(0.99351 0.00492046 0)
(0.999903 0.00393894 0)
(0.997785 0.00472027 0)
(0.996122 0.00817925 0)
(1.00004 0.00846659 0)
(1.004 0.00832459 0)
(1.00211 0.011113 0)
(1.00157 0.0123765 0)
(1.00443 0.0117599 0)
(1.007 0.0125335 0)
(1.00798 0.0139759 0)
(1.00895 0.0140459 0)
(1.01003 0.0137533 0)
(1.01052 0.0138931 0)
(0.998715 -0.00724446 0)
(0.9936 0.00146134 0)
(0.999322 0.00182692 0)
(1.0053 -0.0064401 0)
(0.996006 -0.00794231 0)
(0.991146 -0.000654801 0)
(0.993654 0.0046702 0)
(0.999798 0.00388268 0)
(0.997938 0.00453709 0)
(0.996244 0.00798087 0)
(0.999912 0.00849016 0)
(1.00408 0.00813193 0)
(1.00234 0.0108011 0)
(1.00151 0.01234 0)
(1.0043 0.0116722 0)
(1.00712 0.0121617 0)
(1.00804 0.0137029 0)
(1.00879 0.0139545 0)
(1.00987 0.0135047 0)
(1.01048 0.0135138 0)
(0.998787 -0.00684244 0)
(0.993982 0.00108566 0)
(0.999053 0.00167054 0)
(1.0049 -0.00620284 0)
(0.996244 -0.00747696 0)
(0.991682 -0.00077108 0)
(0.993801 0.00439968 0)
(0.999686 0.00383858 0)
(0.998082 0.00436743 0)
(0.996382 0.00774936 0)
(0.999775 0.00850959 0)
(1.00413 0.00797692 0)
(1.00259 0.0104592 0)
(1.00146 0.0122721 0)
(1.00412 0.0116281 0)
(1.0072 0.0117986 0)
(1.00813 0.0133645 0)
(1.00862 0.013859 0)
(1.00965 0.0133338 0)
(1.0104 0.0131557 0)
(0.998856 -0.00644283 0)
(0.994361 0.000715262 0)
(0.99879 0.00153055 0)
(1.0045 -0.0059932 0)
(0.996471 -0.00701864 0)
(0.992199 -0.00087301 0)
(0.993956 0.00411038 0)
(0.999568 0.00379433 0)
(0.998214 0.00422013 0)
(0.996537 0.0074917 0)
(0.999634 0.00850395 0)
(1.00414 0.00785143 0)
(1.00284 0.0100942 0)
(1.00144 0.0121604 0)
(1.0039 0.0116245 0)
(1.00724 0.0114635 0)
(1.00825 0.0129643 0)
(1.00847 0.0137308 0)
(1.00937 0.0132244 0)
(1.01026 0.012846 0)
(0.99892 -0.0060433 0)
(0.994737 0.000346007 0)
(0.998537 0.00141582 0)
(1.00411 -0.00580301 0)
(0.996689 -0.00658028 0)
(0.992694 -0.000936062 0)
(0.994115 0.00380001 0)
(0.999448 0.00373242 0)
(0.99833 0.00409314 0)
(0.996705 0.00721897 0)
(0.999496 0.00846945 0)
(1.00411 0.00775676 0)
(1.0031 0.00971732 0)
(1.00146 0.011994 0)
(1.00363 0.0116519 0)
(1.00721 0.0111769 0)
(1.00839 0.0125033 0)
(1.00835 0.013546 0)
(1.00904 0.0131649 0)
(1.01004 0.0126039 0)
(0.99898 -0.00564596 0)
(0.99511 -2.23692e-05 0)
(0.998293 0.0013203 0)
(1.00371 -0.0056131 0)
(0.996901 -0.00618366 0)
(0.993166 -0.000955722 0)
(0.994275 0.0034933 0)
(0.999329 0.00365599 0)
(0.998432 0.00398854 0)
(0.996882 0.00694185 0)
(0.999363 0.00840351 0)
(1.00404 0.00768164 0)
(1.00335 0.00933166 0)
(1.00151 0.0117605 0)
(1.00334 0.0116983 0)
(1.00712 0.0109664 0)
(1.00855 0.0119981 0)
(1.0083 0.013272 0)
(1.00869 0.0131345 0)
(1.00973 0.0124447 0)
(0.999036 -0.00525358 0)
(0.995478 -0.00038287 0)
(0.998063 0.00122969 0)
(1.00332 -0.00540472 0)
(0.997109 -0.00584231 0)
(0.993616 -0.000941508 0)
(0.994435 0.00320823 0)
(0.999213 0.00356482 0)
(0.998516 0.00389894 0)
(0.997065 0.00666881 0)
(0.999239 0.00831199 0)
(1.00393 0.00761656 0)
(1.00358 0.00894525 0)
(1.00161 0.0114583 0)
(1.00305 0.0117412 0)
(1.00693 0.0108484 0)
(1.00868 0.0114881 0)
(1.00832 0.012877 0)
(1.00836 0.0130785 0)
(1.00933 0.0123679 0)
(0.999088 -0.00486379 0)
(0.995843 -0.000735415 0)
(0.99785 0.00114195 0)
(1.00293 -0.00516929 0)
(0.997314 -0.00556699 0)
(0.994049 -0.000915445 0)
(0.994593 0.00294606 0)
(0.999101 0.00344204 0)
(0.998588 0.00381146 0)
(0.997252 0.00641084 0)
(0.999125 0.00820902 0)
(1.00378 0.0075625 0)
(1.0038 0.00856503 0)
(1.00176 0.0110894 0)
(1.00276 0.0117438 0)
(1.00665 0.0108116 0)
(1.00877 0.011033 0)
(1.00841 0.0123752 0)
(1.00808 0.0129416 0)
(1.00889 0.0123442 0)
(0.999137 -0.00447963 0)
(0.996204 -0.00107938 0)
(0.997658 0.00105056 0)
(1.00254 -0.0048844 0)
(0.997515 -0.00535615 0)
(0.994471 -0.000885352 0)
(0.994748 0.00272651 0)
(0.998995 0.0032913 0)
(0.99865 0.00371562 0)
(0.997444 0.00616576 0)
(0.999021 0.0080924 0)
(1.0036 0.00752413 0)
(1.00398 0.00820595 0)
(1.00196 0.0106672 0)
(1.00252 0.0116831 0)
(1.0063 0.0108223 0)
(1.00876 0.0106702 0)
(1.00854 0.0118086 0)
(1.00789 0.01269 0)
(1.00842 0.012312 0)
(0.999181 -0.00410739 0)
(0.99656 -0.00140038 0)
(0.997495 0.000941804 0)
(1.00214 -0.0045427 0)
(0.997709 -0.00519337 0)
(0.994891 -0.000859197 0)
(0.9949 0.00256493 0)
(0.998892 0.00313426 0)
(0.998706 0.00360334 0)
(0.997644 0.00592887 0)
(0.998932 0.00796003 0)
(1.00337 0.0074997 0)
(1.00412 0.00787829 0)
(1.0022 0.010197 0)
(1.00233 0.0115465 0)
(1.00589 0.0108472 0)
(1.00865 0.0104068 0)
(1.00869 0.0112307 0)
(1.0078 0.0123252 0)
(1.00799 0.0122223 0)
(0.999223 -0.00374537 0)
(0.99691 -0.00169887 0)
(0.997365 0.000808001 0)
(1.00174 -0.00415291 0)
(0.997893 -0.00504801 0)
(0.995314 -0.000857694 0)
(0.995051 0.00246112 0)
(0.998789 0.00300585 0)
(0.99876 0.00347198 0)
(0.997854 0.00568742 0)
(0.998864 0.00781686 0)
(1.00311 0.0074906 0)
(1.00421 0.00759966 0)
(1.00249 0.00968406 0)
(1.00221 0.0113241 0)
(1.00545 0.010859 0)
(1.00842 0.0102378 0)
(1.00881 0.0106915 0)
(1.0078 0.0118638 0)
(1.00763 0.0120498 0)
(0.999261 -0.00339839 0)
(0.997253 -0.00196279 0)
(0.997276 0.000642882 0)
(1.00134 -0.00372713 0)
(0.998059 -0.00489198 0)
(0.995745 -0.000903558 0)
(0.995209 0.00238938 0)
(0.998682 0.00291361 0)
(0.998807 0.00333305 0)
(0.99808 0.00542995 0)
(0.998827 0.0076549 0)
(1.00282 0.007492 0)
(1.00423 0.00738536 0)
(1.00278 0.0091484 0)
(1.00217 0.0109999 0)
(1.00501 0.0108158 0)
(1.00809 0.0101421 0)
(1.00886 0.0102303 0)
(1.00788 0.0113322 0)
(1.00735 0.0117884 0)
(0.999297 -0.0030715 0)
(0.997585 -0.00218131 0)
(0.99723 0.000440983 0)
(1.00095 -0.0032871 0)
(0.998203 -0.00469615 0)
(0.996186 -0.00101506 0)
(0.995381 0.00233419 0)
(0.998572 0.00286648 0)
(0.998846 0.0032085 0)
(0.99832 0.00514891 0)
(0.998829 0.00744969 0)
(1.00252 0.00748904 0)
(1.00417 0.00724019 0)
(1.00307 0.00863389 0)
(1.00221 0.0105846 0)
(1.00462 0.0106839 0)
(1.00768 0.0100768 0)
(1.00881 0.00987342 0)
(1.00799 0.0107723 0)
(1.00718 0.0114373 0)
(0.999332 -0.0027672 0)
(0.997902 -0.00235362 0)
(0.997229 0.000204878 0)
(1.00059 -0.00285239 0)
(0.998315 -0.00443465 0)
(0.996636 -0.00118607 0)
(0.995582 0.00226557 0)
(0.998462 0.0028866 0)
(0.998866 0.00312887 0)
(0.99857 0.00485446 0)
(0.99888 0.00718831 0)
(1.00224 0.00745699 0)
(1.00404 0.00715254 0)
(1.00332 0.00817328 0)
(1.00231 0.010109 0)
(1.00428 0.0104598 0)
(1.00723 0.00998499 0)
(1.00866 0.0096123 0)
(1.00809 0.0102389 0)
(1.00711 0.0110007 0)
(0.999365 -0.00248992 0)
(0.998203 -0.00247379 0)
(0.997273 -6.41891e-05 0)
(1.00025 -0.00243722 0)
(0.99839 -0.00409782 0)
(0.997084 -0.00137496 0)
(0.995825 0.00215451 0)
(0.998362 0.00295164 0)
(0.998861 0.00310672 0)
(0.998816 0.00456903 0)
(0.998979 0.00687882 0)
(1.00199 0.00737587 0)
(1.00386 0.00710583 0)
(1.00353 0.00777661 0)
(1.00246 0.00960056 0)
(1.00402 0.0101642 0)
(1.00677 0.00983863 0)
(1.00841 0.00940729 0)
(1.00814 0.00978103 0)
(1.00713 0.0105029 0)
(0.999397 -0.00224031 0)
(0.998482 -0.00254134 0)
(0.997359 -0.000361049 0)
(0.999945 -0.0020573 0)
(0.998425 -0.00370353 0)
(0.997521 -0.00155617 0)
(0.996118 0.00197859 0)
(0.998285 0.00302569 0)
(0.998828 0.0031516 0)
(0.999049 0.00431512 0)
(0.999123 0.00652176 0)
(1.00179 0.00723014 0)
(1.00364 0.00708027 0)
(1.00367 0.00745836 0)
(1.00264 0.00909126 0)
(1.00382 0.00981808 0)
(1.00633 0.00964836 0)
(1.0081 0.0092144 0)
(1.00812 0.00940889 0)
(1.00719 0.00998852 0)
(0.999428 -0.002021 0)
(0.998736 -0.00255267 0)
(0.997484 -0.000670226 0)
(0.999693 -0.00173645 0)
(0.998422 -0.00326502 0)
(0.997932 -0.00168144 0)
(0.996463 0.00171655 0)
(0.998253 0.00307581 0)
(0.998773 0.00326933 0)
(0.99925 0.00412897 0)
(0.999299 0.00614119 0)
(1.00165 0.00700963 0)
(1.00341 0.00703361 0)
(1.00374 0.00721313 0)
(1.00283 0.00860549 0)
(1.0037 0.00942215 0)
(1.00592 0.00942147 0)
(1.00775 0.00901432 0)
(1.00802 0.00910454 0)
(1.00724 0.00952252 0)
(0.999459 -0.0018342 0)
(0.998962 -0.0025068 0)
(0.997639 -0.000972806 0)
(0.999498 -0.00148929 0)
(0.99839 -0.00280428 0)
(0.998297 -0.00171445 0)
(0.99685 0.0013956 0)
(0.998287 0.00306629 0)
(0.998707 0.00342182 0)
(0.999405 0.00401804 0)
(0.999488 0.00578109 0)
(1.00157 0.00673051 0)
(1.0032 0.00693983 0)
(1.00376 0.00701834 0)
(1.003 0.00817241 0)
(1.00364 0.00899669 0)
(1.00556 0.00915536 0)
(1.00739 0.00880221 0)
(1.00787 0.0088285 0)
(1.00725 0.00912806 0)
(0.999489 -0.00167617 0)
(0.999159 -0.00241748 0)
(0.997816 -0.00124941 0)
(0.999364 -0.00132456 0)
(0.99834 -0.00233999 0)
(0.998605 -0.00164722 0)
(0.997261 0.00107142 0)
(0.998396 0.00296909 0)
(0.998647 0.00357185 0)
(0.999513 0.0039803 0)
(0.999671 0.00546587 0)
(1.00155 0.00640818 0)
(1.00301 0.00679013 0)
(1.00374 0.00683612 0)
(1.00315 0.00779661 0)
(1.00362 0.0085786 0)
(1.00526 0.00885653 0)
(1.00703 0.00857687 0)
(1.00768 0.00855109 0)
(1.00722 0.00877485 0)
(0.99952 -0.00154351 0)
(0.999326 -0.00229526 0)
(0.998003 -0.00148342 0)
(0.999292 -0.00124429 0)
(0.99829 -0.0018874 0)
(0.998851 -0.00148085 0)
(0.997673 0.000790463 0)
(0.998584 0.00276289 0)
(0.998619 0.00367996 0)
(0.999578 0.00400822 0)
(0.999827 0.00521199 0)
(1.00157 0.00607135 0)
(1.00287 0.00659251 0)
(1.00371 0.00664743 0)
(1.00327 0.00745349 0)
(1.00364 0.00817664 0)
(1.00502 0.00853222 0)
(1.00669 0.00833648 0)
(1.00746 0.0082753 0)
(1.00717 0.00842661 0)
(0.999549 -0.00143455 0)
(0.999465 -0.00215209 0)
(0.998189 -0.00165867 0)
(0.999281 -0.00122807 0)
(0.998253 -0.00147868 0)
(0.999036 -0.00124527 0)
(0.998056 0.000586785 0)
(0.998839 0.00246952 0)
(0.998648 0.00370166 0)
(0.999614 0.00405848 0)
(0.999943 0.0050255 0)
(1.00162 0.00575003 0)
(1.00277 0.00635634 0)
(1.00366 0.00645265 0)
(1.00338 0.00712964 0)
(1.00367 0.00778216 0)
(1.00482 0.00818876 0)
(1.00637 0.00807396 0)
(1.00722 0.00801571 0)
(1.0071 0.0080739 0)
(0.999578 -0.00133684 0)
(0.999578 -0.00200167 0)
(0.998364 -0.00177688 0)
(0.999323 -0.00124956 0)
(0.998242 -0.00112659 0)
(0.999168 -0.000967549 0)
(0.998389 0.000483449 0)
(0.999136 0.00215422 0)
(0.998747 0.00362079 0)
(0.999643 0.00409055 0)
(1.00002 0.00490146 0)
(1.00166 0.00546004 0)
(1.0027 0.00608487 0)
(1.00361 0.00623967 0)
(1.00345 0.00682955 0)
(1.00372 0.00739972 0)
(1.00467 0.00783889 0)
(1.00608 0.00778747 0)
(1.00695 0.00777211 0)
(1.00701 0.00774354 0)
(0.999605 -0.00125502 0)
(0.999668 -0.0018394 0)
(0.998523 -0.00181161 0)
(0.999411 -0.00129909 0)
(0.998264 -0.000858001 0)
(0.999261 -0.000681654 0)
(0.99866 0.000475089 0)
(0.999446 0.00186728 0)
(0.998912 0.00343235 0)
(0.999691 0.00407388 0)
(1.00005 0.00481776 0)
(1.00169 0.00522037 0)
(1.00266 0.00580792 0)
(1.00358 0.00599823 0)
(1.00351 0.00654511 0)
(1.00377 0.00703642 0)
(1.00456 0.00748471 0)
(1.00584 0.00747233 0)
(1.00668 0.00751146 0)
(1.00687 0.00744513 0)
(0.999629 -0.0011811 0)
(0.999744 -0.00168014 0)
(0.998655 -0.00177249 0)
(0.999521 -0.00135302 0)
(0.998322 -0.000678048 0)
(0.999332 -0.000416431 0)
(0.998869 0.000543079 0)
(0.999735 0.00164728 0)
(0.999132 0.00317677 0)
(0.999782 0.00398324 0)
(1.00007 0.004737 0)
(1.00168 0.00502428 0)
(1.00263 0.00554892 0)
(1.00356 0.00573848 0)
(1.00356 0.00625296 0)
(1.00382 0.00669048 0)
(1.00447 0.00713868 0)
(1.00563 0.00714467 0)
(1.00644 0.00721919 0)
(1.0067 0.00716239 0)
(0.99965 -0.00110275 0)
(0.999806 -0.00154271 0)
(0.998761 -0.00169151 0)
(0.999643 -0.00138007 0)
(0.998416 -0.000565426 0)
(0.999397 -0.0001886 0)
(0.999022 0.000649183 0)
(0.999982 0.00150381 0)
(0.999377 0.0029186 0)
(0.999918 0.00381505 0)
(1.00009 0.00463874 0)
(1.00165 0.00485798 0)
(1.00258 0.00531072 0)
(1.00353 0.00548573 0)
(1.00361 0.00595724 0)
(1.00388 0.00634763 0)
(1.00439 0.00680958 0)
(1.00543 0.00683142 0)
(1.00621 0.0069111 0)
(1.00651 0.00687301 0)
(0.999668 -0.00102743 0)
(0.999862 -0.00142217 0)
(0.998847 -0.00156623 0)
(0.999762 -0.00137356 0)
(0.998537 -0.000506548 0)
(0.999466 -6.07529e-06 0)
(0.999133 0.000769157 0)
(1.00018 0.0014249 0)
(0.999622 0.00269116 0)
(1.0001 0.00358682 0)
(1.00012 0.00450166 0)
(1.0016 0.00470835 0)
(1.00252 0.00508843 0)
(1.00349 0.00523846 0)
(1.00363 0.00567544 0)
(1.00393 0.00599985 0)
(1.00433 0.006472 0)
(1.00524 0.00653276 0)
(1.00599 0.00660806 0)
(1.00632 0.00657347 0)
(0.999683 -0.000950095 0)
(0.999914 -0.00131634 0)
(0.998914 -0.00142512 0)
(0.999868 -0.00132985 0)
(0.998678 -0.000477373 0)
(0.999547 0.00012705 0)
(0.999211 0.000887735 0)
(1.00033 0.00140177 0)
(0.999844 0.00250819 0)
(1.0003 0.00334025 0)
(1.00019 0.00431534 0)
(1.00154 0.00455963 0)
(1.00243 0.00488716 0)
(1.00345 0.00498421 0)
(1.00363 0.00540187 0)
(1.00398 0.00566515 0)
(1.0043 0.00611034 0)
(1.00507 0.00622282 0)
(1.00576 0.00631538 0)
(1.00612 0.00627217 0)
(0.999695 -0.000870922 0)
(0.999963 -0.00122339 0)
(0.998971 -0.0012865 0)
(0.999956 -0.00124654 0)
(0.998828 -0.000456167 0)
(0.999644 0.000210526 0)
(0.999275 0.000991639 0)
(1.00044 0.00141059 0)
(1.00003 0.00237208 0)
(1.0005 0.00310224 0)
(1.00029 0.0040912 0)
(1.00149 0.00439072 0)
(1.00232 0.00471042 0)
(1.00338 0.0047434 0)
(1.00363 0.0051207 0)
(1.00399 0.005354 0)
(1.00428 0.00574754 0)
(1.00495 0.00588043 0)
(1.00555 0.00601369 0)
(1.00593 0.00595564 0)
(0.999704 -0.00079487 0)
(1.00001 -0.00113344 0)
(0.999023 -0.00114931 0)
(1.00003 -0.001135 0)