/*--------------------------------*- C++ -*----------------------------------*\
| =========                 |                                                 |
| \\      /  F ield         | OpenFOAM: The Open Source CFD Toolbox           |
|  \\    /   O peration     | Version:  2506                                  |
|   \\  /    A nd           | Website:  www.openfoam.com                      |
|    \\/     M anipulation  |                                                 |
\*---------------------------------------------------------------------------*/
FoamFile
{
    version     2.0;
    format      ascii;
    arch        "LSB;label=32;scalar=64";
    class       volScalarField;
    location    "6.45";
    object      p;
}
// * * * * * * * * * * * * * * * * * * * * * * * * * * * * * * * * * * * * * //

dimensions      [0 2 -2 0 0 0 0];

internalField   nonuniform List<scalar> 
9600
(
4.90164e-10
0.000180221
0.00211524
0.00154053
0.00277783
0.00151876
0.00445284
0.00182674
-0.000802499
0.00035774
0.00176396
0.00457159
0.00496491
0.00574837
0.00790314
0.00830912
0.0133788
0.0142056
0.0217195
0.0285914
-1.63947e-06
0.000180368
0.00211634
0.00151356
0.00277733
0.00150843
0.00447006
0.00182016
-0.000780313
0.000374916
0.00175644
0.0045786
0.00495228
0.00573767
0.00789975
0.00828277
0.0134027
0.0141378
0.0219414
0.0280669
-3.84193e-06
0.000180608
0.00211663
0.00148854
0.00277413
0.00149746
0.0044836
0.00180539
-0.000738009
0.000400981
0.00174326
0.0045871
0.00492483
0.00572565
0.00788949
0.00825333
0.0133916
0.0140727
0.0220058
0.0273599
-6.11385e-06
0.000180367
0.00211645
0.00146301
0.00276879
0.00148417
0.00448267
0.00177776
-0.000683327
0.000425892
0.00172735
0.00459053
0.00489162
0.00571165
0.00788482
0.00821942
0.0133803
0.0140037
0.0219273
0.0267308
-8.5611e-06
0.000179564
0.00211641
0.00143619
0.00276251
0.0014685
0.00446809
0.00173778
-0.000617763
0.000447073
0.00170835
0.00458985
0.00485542
0.00569398
0.00788713
0.00818459
0.0133713
0.013929
0.0218226
0.026139
-1.12709e-05
0.000178408
0.00211651
0.00140774
0.00275666
0.00145124
0.0044415
0.00168841
-0.000542583
0.000465609
0.00168654
0.00458784
0.00481956
0.00567454
0.0078962
0.00815376
0.0133505
0.0138626
0.0216657
0.0255714
-1.42657e-05
0.000177119
0.0021165
0.00137747
0.00275228
0.00143326
0.00440364
0.00163512
-0.000458523
0.000483993
0.00166228
0.00458653
0.00478684
0.00565316
0.00791201
0.00812545
0.0133166
0.0138024
0.0214476
0.0250226
-1.7579e-05
0.000175855
0.00211633
0.00134526
0.00274989
0.00141506
0.00435567
0.00158323
-0.000366225
0.00050411
0.00163545
0.00458627
0.00475729
0.00562918
0.00793166
0.00810004
0.0132681
0.0137474
0.0211664
0.0244882
-2.12627e-05
0.00017469
0.002116
0.00131115
0.00274935
0.00139678
0.00429947
0.00153633
-0.000266529
0.000527291
0.00160623
0.0045864
0.00473012
0.00560185
0.00795234
0.00807799
0.0132029
0.0136952
0.0208241
0.0239626
-2.53592e-05
0.000173634
0.00211552
0.00127534
0.00275001
0.00137832
0.00423727
0.00149581
-0.000160717
0.000554643
0.00157508
0.00458648
0.00470453
0.0055705
0.00797185
0.00805979
0.0131166
0.0136433
0.0204256
0.023439
-2.98877e-05
0.000172663
0.00211482
0.00123812
0.00275102
0.00135952
0.0041713
0.00146121
-5.0854e-05
0.000586826
0.00154249
0.00458649
0.00467969
0.00553515
0.0079883
0.00804552
0.0129787
0.013589
0.0199771
0.022909
-3.48486e-05
0.000171747
0.00211375
0.00119977
0.00275163
0.00134037
0.00410353
0.00143097
5.99268e-05
0.000624028
0.00150853
0.00458633
0.00465535
0.00549623
0.0079994
0.00803555
0.0128393
0.013528
0.0194848
0.0223664
-4.02358e-05
0.000170877
0.00211211
0.00116059
0.00275132
0.00132095
0.00403536
0.00140327
0.000167829
0.000666099
0.00147251
0.00458576
0.00463206
0.00545394
0.00800276
0.00802936
0.012677
0.013455
0.0189552
0.0218064
-4.60415e-05
0.000170066
0.00210969
0.00112088
0.0027497
0.0013014
0.00396736
0.00137666
0.000269543
0.000712659
0.00143323
0.00458426
0.00461046
0.00540812
0.00799639
0.00802485
0.0124919
0.0133655
0.018394
0.0212253
-5.2256e-05
0.000169328
0.00210627
0.0010809
0.00274645
0.00128177
0.00389946
0.0013502
0.000363308
0.000763477
0.00138976
0.00458098
0.00459076
0.00535841
0.00797888
0.00801887
0.0122861
0.0132556
0.0178071
0.0206205
-5.88738e-05
0.000168655
0.00210171
0.00104091
0.00274128
0.00126213
0.00383116
0.00132345
0.000443948
0.000818584
0.00134183
0.00457493
0.00457257
0.00530417
0.00794957
0.00800749
0.0120618
0.0131228
0.0171996
0.0199907
-6.59004e-05
0.000167994
0.00209588
0.00100109
0.00273382
0.00124255
0.00376179
0.00129649
0.000520761
0.000878302
0.00128986
0.00456527
0.00455547
0.00524405
0.00790847
0.00798692
0.0118205
0.0129659
0.016576
0.0193349
-7.33466e-05
0.000167244
0.00208874
0.000961538
0.00272372
0.00122315
0.00369073
0.00126978
0.000588964
0.000943164
0.00123456
0.00455123
0.00453952
0.00517661
0.0078566
0.00795394
0.0115611
0.0127862
0.0159395
0.018652
-8.1215e-05
0.000166269
0.00208024
0.000922283
0.00271052
0.00120419
0.00361733
0.00124409
0.000647889
0.00101346
0.00117662
0.00453189
0.0045254
0.00510058
0.00779543
0.00790706
0.0112829
0.0125862
0.0152945
0.0179404
-8.94944e-05
0.000164908
0.00207035
0.000883345
0.00269377
0.00118592
0.00354085
0.00122032
0.000696755
0.00108901
0.00111665
0.00450597
0.00451481
0.00501428
0.00772532
0.00784687
0.0109824
0.0123684
0.0146475
0.0171973
-9.81636e-05
0.000162978
0.002059
0.000844781
0.00267302
0.00116859
0.00346045
0.00119921
0.00073476
0.00116931
0.00105534
0.00447181
0.00450963
0.00491613
0.00764556
0.00777431
0.010656
0.0121339
0.0140055
0.0164212
-0.000107182
0.00016027
0.00204617
0.000806669
0.00264781
0.00115257
0.00337519
0.00118137
0.000761156
0.0012535
0.000993728
0.00442741
0.00451148
0.00480499
0.00755391
0.00769199
0.0103
0.0118802
0.0133774
0.0156127
-0.000116487
0.000156558
0.00203178
0.000769085
0.00261765
0.00113827
0.00328424
0.00116715
0.00077546
0.00134049
0.000933508
0.00437003
0.0045216
0.00468124
0.00744665
0.00760364
0.00991179
0.0116006
0.0127742
0.014773
-0.00012601
0.000151625
0.00201576
0.000732136
0.00258208
0.00112605
0.00318683
0.00115683
0.000777389
0.0014287
0.000876933
0.00429671
0.00454042
0.00454665
0.00731849
0.00751349
0.00949382
0.0112869
0.0122059
0.01391
-0.000135665
0.000145242
0.00199797
0.000695988
0.00254057
0.00111636
0.00308223
0.00115064
0.000766741
0.00151584
0.000826665
0.00420467
0.00456733
0.00440447
0.00716349
0.00742435
0.00905302
0.0109297
0.0116772
0.0130384
-0.000145321
0.000137153
0.00197823
0.000660902
0.00249257
0.0011095
0.00296997
0.00114838
0.000743818
0.00159935
0.000785895
0.0040918
0.00460017
0.00425901
0.00697615
0.00733557
0.00859676
0.010519
0.0111848
0.0121757
-0.000154858
0.000127102
0.00195634
0.000627164
0.00243743
0.00110569
0.00284989
0.00114937
0.000709778
0.0016764
0.00075768
0.00395701
0.00463515
0.00411427
0.00675142
0.00724461
0.008137
0.0100482
0.010718
0.0113444
-0.000164165
0.000114848
0.00193204
0.00059514
0.00237446
0.00110522
0.00272131
0.0011528
0.000666114
0.0017431
0.000744505
0.00380007
0.00466731
0.00397597
0.00648629
0.00714442
0.00768721
0.0095155
0.0102624
0.0105648
-0.000173113
0.000100186
0.00190495
0.000565231
0.00230296
0.00110821
0.00258537
0.00115772
0.000614768
0.0017949
0.000747801
0.00362193
0.0046906
0.00385037
0.00618108
0.00702388
0.00725858
0.00892798
0.00979967
0.00985052
-0.000181555
8.29235e-05
0.00187468
0.000537724
0.00222235
0.00111456
0.00244286
0.00116251
0.000558437
0.0018283
0.000767891
0.00342465
0.00469778
0.00374193
0.00583992
0.00687112
0.00685845
0.00829955
0.0093106
0.00920377
-0.000189369
6.29189e-05
0.00184069
0.00051309
0.0021321
0.00112388
0.00229471
0.00116489
0.00050036
0.00184077
0.000803328
0.00321218
0.0046815
0.00365251
0.00546897
0.00667484
0.00649033
0.00764492
0.00878864
0.00861206
-0.00019649
4.01189e-05
0.00180231
0.000491837
0.0020319
0.00113534
0.00214255
0.00116239
0.000443645
0.00182975
0.000850898
0.00299079
0.00463498
0.00358014
0.0050761
0.00642648
0.00615269
0.00698415
0.00817761
0.00809292
-0.000202852
1.45505e-05
0.00175882
0.000474095
0.00192175
0.00114797
0.00198867
0.00115215
0.000390585
0.00179381
0.00090617
0.00276673
0.00455218
0.00352071
0.0046725
0.00612133
0.00583615
0.00633607
0.00751148
0.0075511
-0.000208359
-1.3655e-05
0.00170934
0.000459964
0.00180195
0.00116042
0.00183559
0.0011313
0.000342487
0.00173325
0.000963437
0.00254543
0.00442965
0.003469
0.00426869
0.00575917
0.00552773
0.00571425
0.00680123
0.00699077
-0.000213023
-4.43269e-05
0.00165304
0.000449508
0.00167317
0.00117067
0.00168596
0.00109769
0.000299816
0.00164975
0.00101604
0.00233154
0.00426692
0.00341664
0.00387345
0.00534506
0.00521121
0.0051263
0.00606446
0.00639023
-0.000216938
-7.72682e-05
0.00158918
0.000442617
0.00153653
0.00117627
0.0015424
0.00104982
0.000262019
0.00154604
0.00105748
0.00212785
0.00406496
0.00335394
0.00349453
0.00488689
0.00487377
0.00459255
0.0053237
0.00574118
-0.000220275
-0.000112272
0.00151708
0.000439076
0.00139348
0.0011745
0.00140699
0.000987297
0.000227254
0.00142501
0.00108258
0.00193532
0.00382641
0.00327228
0.00313622
0.00439403
0.00450556
0.00409181
0.00459814
0.00505017
-0.000223393
-0.000149066
0.00143621
0.000438245
0.00124571
0.0011627
0.00128146
0.000910235
0.000192383
0.00129081
0.00108713
0.00175288
0.00355607
0.00316407
0.00279886
0.00387716
0.00410218
0.00361404
0.00389965
0.00433139
-0.000226498
-0.000187361
0.00134613
0.000439242
0.00109529
0.00113813
0.00116692
0.000819819
0.000154001
0.00114698
0.00106771
0.00157845
0.00325978
0.00302265
0.00247979
0.0033465
0.00366315
0.00314947
0.00323256
0.00360393
-0.000229923
-0.000226881
0.00124677
0.000441034
0.000944388
0.00109797
0.00106328
0.000719248
0.000108632
0.000994508
0.00102258
0.00140946
0.00294281
0.00284384
0.00217518
0.00281098
0.00318892
0.00269125
0.00259586
0.00288351
-0.000234071
-0.00026716
0.00113808
0.000442068
0.000795592
0.00104034
0.00096901
0.000611489
5.32021e-05
0.000834386
0.000950757
0.00124207
0.00261049
0.0026264
0.00187966
0.00227835
0.00268174
0.00223369
0.00198709
0.00217816
-0.00023956
-0.000307469
0.00102015
0.000440354
0.000651836
0.000964157
0.000880688
0.000499693
-1.37036e-05
0.000667577
0.000850834
0.00107143
0.00226839
0.00237073
0.00158697
0.00175513
0.00214463
0.00176941
0.0014058
0.00149124
-0.000247265
-0.000346895
0.000893434
0.000433269
0.000515951
0.000869047
0.000793926
0.000386661
-9.2682e-05
0.000494092
0.000722365
0.000892234
0.00192018
0.00207957
0.00129173
0.00124598
0.0015821
0.00129043
0.000852674
0.000825036
-0.000258078
-0.000384694
0.000758695
0.00041799
0.000390154
0.000755566
0.000704252
0.00027336
-0.000184234
0.000314112
0.000567256
0.000699042
0.00156662
0.00175847
0.000989555
0.000752963
0.0010026
0.000790742
0.000323743
0.00018247
-0.000273112
-0.000420367
0.000617608
0.00039142
0.0002755
0.000626001
0.000606733
0.000159747
-0.000287673
0.000127103
0.000388539
0.000488376
0.00120678
0.00141297
0.000677967
0.000276684
0.000414823
0.000266417
-0.000190271
-0.000431659
-0.000293391
-0.00045377
0.000472599
0.000350283
0.000171407
0.000485766
0.000497417
4.37688e-05
-0.000402412
-6.77816e-05
0.000187885
0.000260003
0.000841181
0.00104577
0.000354851
-0.000181869
-0.000173365
-0.000284009
-0.000700795
-0.00101447
-0.000319476
-0.00048541
0.000326493
0.000291947
7.49627e-05
0.000341191
0.000375005
-7.89237e-05
-0.000523343
-0.000270223
-3.2126e-05
1.4834e-05
0.000470889
0.000658802
1.73989e-05
-0.000623763
-0.000753558
-0.000856423
-0.00122066
-0.00157085
-0.000351797
-0.000516305
0.000182344
0.000214608
-1.91005e-05
0.000196805
0.000240331
-0.000211787
-0.00066304
-0.000480313
-0.000266681
-0.000245344
9.53359e-05
0.00025388
-0.000336723
-0.00105188
-0.00131898
-0.00144366
-0.00175751
-0.00211107
-0.000390451
-0.000547981
4.26486e-05
0.000117957
-0.000117213
5.38204e-05
9.75515e-05
-0.000356012
-0.000818347
-0.000698788
-0.000512565
-0.000517941
-0.000285951
-0.000168112
-0.000709467
-0.00147066
-0.00186599
-0.00203653
-0.00231067
-0.00264785
-0.000435216
-0.000582278
-9.13612e-05
4.06633e-06
-0.000225111
-8.68929e-05
-5.04243e-05
-0.000510651
-0.00098963
-0.000927841
-0.000768227
-0.000799932
-0.000671557
-0.000606137
-0.00110332
-0.0018852
-0.00239263
-0.00262604
-0.00287581
-0.00318887
-0.000485819
-0.000620824
-0.000219373
-0.000123071
-0.000346784
-0.000224954
-0.000201332
-0.000672543
-0.00117656
-0.00116952
-0.00103399
-0.00108927
-0.00105835
-0.0010572
-0.00151999
-0.00229976
-0.00289867
-0.003207
-0.00344729
-0.00373306
-0.000541693
-0.000665251
-0.0003423
-0.00025885
-0.000484286
-0.000380199
-0.000355259
-0.00084017
-0.00137704
-0.00142463
-0.00131211
-0.00138621
-0.00144296
-0.00151569
-0.00195892
-0.00272046
-0.0033865
-0.00377585
-0.00402175
-0.00427646
-0.000602187
-0.000716833
-0.000461806
-0.000399412
-0.000637818
-0.000550817
-0.000515079
-0.0010087
-0.00158749
-0.00169376
-0.00160522
-0.00169203
-0.00182351
-0.00197485
-0.00241578
-0.00315411
-0.00386046
-0.00432703
-0.00459778
-0.00481892
-0.000666631
-0.00077608
-0.000580535
-0.000541863
-0.000805085
-0.000742228
-0.000686681
-0.00117519
-0.0018009
-0.00197565
-0.00191576
-0.00200915
-0.00220043
-0.00242925
-0.00288312
-0.00360201
-0.00432795
-0.0048557
-0.00517011
-0.0053661
-0.000734456
-0.000842821
-0.000701953
-0.000685298
-0.000981618
-0.000957305
-0.000878343
-0.00134054
-0.00200845
-0.0022659
-0.00224508
-0.00234124
-0.00257548
-0.00287502
-0.00335326
-0.00406064
-0.00479705
-0.00536501
-0.00572916
-0.0059206
-0.000805965
-0.000915912
-0.000828121
-0.000830759
-0.00116276
-0.00119512
-0.00109694
-0.00150834
-0.0022062
-0.00255686
-0.00259184
-0.00269281
-0.00295234
-0.0033111
-0.00382033
-0.00452342
-0.00526869
-0.00586338
-0.0062681
-0.00647638
-0.0008799
-0.00100921
-0.00096392
-0.000982178
-0.0013436
-0.0014498
-0.00134593
-0.00168558
-0.00239329
-0.00284079
-0.00295052
-0.00306618
-0.0033378
-0.00373879
-0.00428057
-0.00498437
-0.005738
-0.00635658
-0.00678758
-0.00702324
-0.000956185
-0.00109013
-0.001113
-0.00114465
-0.00152074
-0.00171042
-0.0016244
-0.00188413
-0.00257285
-0.00311244
-0.00331333
-0.00345899
-0.00373807
-0.00416269
-0.00473126
-0.00543955
-0.00620002
-0.00684447
-0.00729511
-0.00755335
-0.00104091
-0.00118318
-0.00126591
-0.00131786
-0.0016945
-0.00196614
-0.00192779
-0.0021157
-0.00275554
-0.00336904
-0.00367194
-0.00386508
-0.00415461
-0.00459065
-0.00517416
-0.00588694
-0.00665095
-0.00732066
-0.00779451
-0.00806593
-0.00113414
-0.0012807
-0.00142351
-0.0015031
-0.00186864
-0.00220971
-0.00224593
-0.00238452
-0.00295502
-0.00361142
-0.00401698
-0.00427606
-0.00458473
-0.0050271
-0.00561457
-0.00632693
-0.00709021
-0.00777918
-0.00828187
-0.00856463
-0.00123609
-0.00138668
-0.00158491
-0.0017
-0.00204941
-0.00243949
-0.00256489
-0.00268839
-0.00318214
-0.00384643
-0.00434301
-0.00468175
-0.00502288
-0.00547201
-0.00605687
-0.00676173
-0.00751957
-0.00821884
-0.00875097
-0.00905181
-0.00134862
-0.00150189
-0.00174763
-0.00190577
-0.00224155
-0.0026587
-0.00287418
-0.00301846
-0.00344364
-0.0040854
-0.00465019
-0.00507258
-0.00546063
-0.00592254
-0.00650252
-0.00719493
-0.00794248
-0.00864221
-0.00919703
-0.00952329
-0.00147118
-0.0016266
-0.00191215
-0.00211831
-0.00244741
-0.00287369
-0.00316829
-0.00336019
-0.00373903
-0.00433921
-0.00494354
-0.00544308
-0.00588778
-0.00637372
-0.00695111
-0.00762712
-0.00836063
-0.00905457
-0.00962023
-0.00997173
-0.00160318
-0.00176096
-0.00208009
-0.00233527
-0.00266673
-0.00309143
-0.00344722
-0.00369994
-0.00406184
-0.00461485
-0.00523109
-0.00579271
-0.00629557
-0.00681631
-0.00739968
-0.00805773
-0.00877354
-0.0094597
-0.0100258
-0.0103944
-0.00174514
-0.00190666
-0.00225133
-0.00255327
-0.00289761
-0.00331707
-0.00371425
-0.00402932
-0.00440077
-0.00491414
-0.00552043
-0.00612457
-0.00668061
-0.00723883
-0.00784035
-0.00848741
-0.0091811
-0.00985709
-0.0104181
-0.0107941
-0.00189613
-0.00206118
-0.00242752
-0.00277208
-0.00313752
-0.00355299
-0.00397568
-0.00434534
-0.00474175
-0.00523332
-0.00581874
-0.00644219
-0.00704251
-0.00763607
-0.00826127
-0.00891031
-0.00958132
-0.0102437
-0.0107999
-0.0111761
-0.00205643
-0.00222772
-0.00260984
-0.00298955
-0.00338144
-0.00379768
-0.00423611
-0.00464941
-0.00507503
-0.00556221
-0.00612868
-0.00675094
-0.00738083
-0.00800759
-0.00865443
-0.00931551
-0.00997153
-0.0106159
-0.0111687
-0.0115428
-0.00222481
-0.00240102
-0.00279931
-0.00320895
-0.00362793
-0.00405097
-0.00449866
-0.00494393
-0.0053973
-0.00588786
-0.00644485
-0.00705762
-0.00769608
-0.00834807
-0.00901451
-0.00969175
-0.0103464
-0.0109733
-0.0115208
-0.0118939
-0.00240153
-0.00258258
-0.00299521
-0.00342907
-0.00387298
-0.00430852
-0.00476502
-0.00523307
-0.00570916
-0.00620445
-0.0067555
-0.00736021
-0.00799573
-0.0086578
-0.00933609
-0.0100235
-0.0106862
-0.0113046
-0.0118472
-0.0122232
-0.00258764
-0.00277531
-0.00319629
-0.00364918
-0.00411585
-0.00456586
-0.00503133
-0.00551557
-0.00601166
-0.00651578
-0.00705598
-0.00764591
-0.00827377
-0.00893787
-0.00962418
-0.0103163
-0.0109852
-0.0116025
-0.0121411
-0.0125224
-0.002779
-0.00296907
-0.00340394
-0.00387594
-0.0043597
-0.00482485
-0.00530039
-0.00579141
-0.00629594
-0.00681343
-0.00735299
-0.00792045
-0.00851928
-0.00916216
-0.00984904
-0.0105523
-0.0112338
-0.0118599
-0.0124006
-0.0127942
-0.00297774
-0.00317059
-0.00361476
-0.00410162
-0.00459904
-0.00507918
-0.0055705
-0.00607129
-0.0065724
-0.00708987
-0.00762798
-0.00818553
-0.00876161
-0.00935673
-0.00998889
-0.0106629
-0.011347
-0.0119931
-0.012556
-0.0129932
-0.00318486
-0.0033814
-0.00382681
-0.00432331
-0.0048321
-0.00532424
-0.00583062
-0.00634851
-0.00686022
-0.00736413
-0.0078734
-0.00840678
-0.00896243
-0.00954272
-0.010162
-0.0108045
-0.0114314
-0.0120168
-0.0125165
-0.0129117
-0.00339395
-0.00359502
-0.00404526
-0.00454801
-0.00506241
-0.00556395
-0.00608208
-0.00661335
-0.00714588
-0.00765749
-0.00812327
-0.00855711
-0.00898853
-0.00946083
-0.0100142
-0.0106716
-0.0113945
-0.0121127
-0.0127244
-0.0132202
-0.00360478
-0.00380901
-0.00426935
-0.00477807
-0.00529039
-0.00579548
-0.00633198
-0.00687748
-0.00744337
-0.00803454
-0.00858473
-0.00902769
-0.00933871
-0.00959646
-0.00991594
-0.01026
-0.0105935
-0.0108529
-0.0111544
-0.0114523
-0.00383082
-0.00402099
-0.00445816
-0.00495504
-0.00546642
-0.00600298
-0.00659177
-0.00714981
-0.00760659
-0.00799028
-0.00832669
-0.00869117
-0.00914382
-0.00964408
-0.0101367
-0.010645
-0.0110986
-0.0115149
-0.011859
-0.0122392
-0.00409071
-0.00432142
-0.00472458
-0.0051419
-0.0055797
-0.00604105
-0.00655022
-0.00707133
-0.00761019
-0.00814998
-0.00867211
-0.00915545
-0.00959264
-0.00994373
-0.010208
-0.0103719
-0.0105468
-0.0107532
-0.0110097
-0.0113608
-0.00425319
-0.00440984
-0.00479493
-0.00522699
-0.00565914
-0.00610133
-0.00661412
-0.00715878
-0.00769181
-0.0081867
-0.00860546
-0.00900049
-0.0094059
-0.00990193
-0.0104879
-0.0111766
-0.0118619
-0.0125467
-0.0132301
-0.0138527
-0.00449259
-0.00468758
-0.00500467
-0.00533122
-0.00569866
-0.00612898
-0.00665604
-0.00721653
-0.00778002
-0.00833917
-0.00883567
-0.00927675
-0.009694
-0.0100846
-0.0104236
-0.010679
-0.0108994
-0.0111233
-0.0113877
-0.011753
-0.00463145
-0.00481897
-0.00510003
-0.00537194
-0.00571078
-0.00613293
-0.00665988
-0.00723805
-0.00782073
-0.00836089
-0.00881625
-0.00918989
-0.00956148
-0.00996069
-0.0103551
-0.0107477
-0.011156
-0.0115919
-0.0120592
-0.0126005
0.0434154
0.0282264
0.0127334
0.00306659
-0.000992103
-0.0020387
-0.0026782
-0.0039306
-0.00577288
-0.00771732
-0.00921534
-0.0101878
-0.01103
-0.0120556
-0.0132484
-0.0144525
-0.0155063
-0.0163321
-0.0171186
-0.0180883
-0.0191616
-0.02017
-0.0211194
-0.0220695
-0.0230334
-0.0240372
-0.0250875
-0.0261418
-0.0272337
-0.0284541
-0.0297692
-0.0310337
-0.0321428
-0.0331252
-0.0340908
-0.0351207
-0.036197
-0.0372685
-0.0383424
-0.0394714
-0.0406346
-0.0417924
-0.0429565
-0.0441471
-0.0453243
-0.0464994
-0.0477151
-0.0489732
-0.0502541
-0.0515671
-0.0528972
-0.0542527
-0.0556475
-0.0570661
-0.0584779
-0.0598601
-0.0612755
-0.0627544
-0.0642538
-0.0657652
-0.0673377
-0.0689339
-0.0705218
-0.0721215
-0.073782
-0.075451
-0.0771468
-0.078893
-0.0806707
-0.0824849
-0.0843568
-0.0862822
-0.0882141
-0.090162
-0.0921246
-0.0940933
-0.0961329
-0.0982481
-0.100423
-0.102599
-0.104815
-0.107055
-0.109342
-0.111675
-0.114049
-0.116483
-0.118942
-0.121466
-0.124025
-0.12665
-0.129272
-0.131967
-0.134644
-0.137427
-0.140228
-0.143017
-0.145932
-0.148687
-0.151283
-0.153923
0.0410074
0.0280297
0.0128207
0.0031812
-0.000911733
-0.00199361
-0.00264824
-0.00390945
-0.00575823
-0.00770747
-0.00920851
-0.0101823
-0.0110246
-0.0120503
-0.0132435
-0.0144483
-0.0155027
-0.0163288
-0.0171149
-0.0180847
-0.0191584
-0.0201671
-0.0211167
-0.022067
-0.023031
-0.0240349
-0.0250854
-0.0261399
-0.0272318
-0.0284523
-0.0297677
-0.0310324
-0.0321418
-0.0331242
-0.0340898
-0.0351197
-0.0361961
-0.0372677
-0.0383416
-0.0394707
-0.040634
-0.0417919
-0.042956
-0.0441466
-0.0453238
-0.0464989
-0.0477146
-0.0489728
-0.0502537
-0.0515667
-0.0528968
-0.0542523
-0.0556471
-0.0570657
-0.0584776
-0.0598597
-0.0612752
-0.062754
-0.0642535
-0.0657649
-0.0673374
-0.0689336
-0.0705215
-0.0721212
-0.0737818
-0.0754508
-0.0771466
-0.0788927
-0.0806704
-0.0824847
-0.0843566
-0.086282
-0.088214
-0.0901618
-0.0921244
-0.0940931
-0.0961327
-0.098248
-0.100423
-0.102599
-0.104815
-0.107054
-0.109342
-0.111675
-0.114049
-0.116483
-0.118942
-0.121466
-0.124025
-0.12665
-0.129272
-0.131967
-0.134644
-0.137427
-0.140228
-0.143017
-0.145932
-0.148687
-0.151283
-0.153923
0.0393407
0.0280078
0.0130547
0.00340407
-0.000780154
-0.00194188
-0.00262542
-0.00389124
-0.00574098
-0.00769196
-0.00919614
-0.0101737
-0.011019
-0.0120462
-0.0132395
-0.0144443
-0.0154992
-0.0163257
-0.0171121
-0.018082
-0.0191558
-0.0201646
-0.0211143
-0.0220648
-0.0230289
-0.0240329
-0.0250835
-0.0261381
-0.02723
-0.0284507
-0.0297664
-0.0310315
-0.0321409
-0.0331233
-0.0340888
-0.0351188
-0.0361953
-0.037267
-0.0383409
-0.03947
-0.0406334
-0.0417913
-0.0429555
-0.0441462
-0.0453234
-0.0464984
-0.0477142
-0.0489724
-0.0502533
-0.0515663
-0.0528965
-0.0542519
-0.0556468
-0.0570654
-0.0584773
-0.0598595
-0.0612749
-0.0627537
-0.0642532
-0.0657646
-0.0673372
-0.0689334
-0.0705213
-0.072121
-0.0737815
-0.0754506
-0.0771464
-0.0788925
-0.0806702
-0.0824845
-0.0843564
-0.0862818
-0.0882138
-0.0901616
-0.0921243
-0.094093
-0.0961326
-0.0982478
-0.100422
-0.102599
-0.104815
-0.107054
-0.109342
-0.111674
-0.114048
-0.116483
-0.118942
-0.121466
-0.124024
-0.12665
-0.129272
-0.131967
-0.134644
-0.137427
-0.140228
-0.143017
-0.145932
-0.148687
-0.151283
-0.153923
0.0376775
0.0278675
0.0132883
0.00365134
-0.000623152
-0.00188175
-0.00260014
-0.00386936
-0.00571735
-0.00766608
-0.00917192
-0.0101571
-0.0110113
-0.0120433
-0.0132366
-0.0144395
-0.0154938
-0.0163217
-0.0171095
-0.0180798
-0.0191532
-0.0201617
-0.0211117
-0.0220628
-0.023027
-0.0240309
-0.0250813
-0.0261358
-0.0272279
-0.0284489
-0.0297651
-0.0310304
-0.0321399
-0.0331222
-0.0340877
-0.0351178
-0.0361944
-0.0372661
-0.0383401
-0.0394693
-0.0406328
-0.0417907
-0.0429549
-0.0441457
-0.045323
-0.046498
-0.0477138
-0.048972
-0.0502529
-0.0515659
-0.0528961
-0.0542516
-0.0556465
-0.0570651
-0.0584771
-0.0598592
-0.0612745
-0.0627535
-0.0642529
-0.0657643
-0.0673369
-0.0689332
-0.0705211
-0.0721208
-0.0737813
-0.0754504
-0.0771462
-0.0788923
-0.08067
-0.0824843
-0.0843562
-0.0862816
-0.0882136
-0.0901615
-0.0921241
-0.0940928
-0.0961324
-0.0982477
-0.100422
-0.102599
-0.104815
-0.107054
-0.109342
-0.111674
-0.114048
-0.116483
-0.118942
-0.121465
-0.124024
-0.12665
-0.129272
-0.131967
-0.134644
-0.137427
-0.140228
-0.143017
-0.145931
-0.148687
-0.151283
-0.153923
0.0359747
0.0276028
0.0135199
0.00391343
-0.000455304
-0.00181808
-0.00257535
-0.00384671
-0.00568899
-0.00762973
-0.00913421
-0.01013
-0.0109994
-0.012041
-0.0132353
-0.014434
-0.015486
-0.0163156
-0.0171066
-0.0180778
-0.0191502
-0.020158
-0.0211087
-0.0220608
-0.0230255
-0.0240289
-0.0250785
-0.0261329
-0.0272254
-0.028447
-0.0297634
-0.0310288
-0.0321382
-0.0331206
-0.0340863
-0.0351164
-0.0361931
-0.0372649
-0.038339
-0.0394683
-0.040632
-0.04179
-0.0429543
-0.0441451
-0.0453224
-0.0464974
-0.0477132
-0.0489715
-0.0502525
-0.0515655
-0.0528957
-0.0542512
-0.0556461
-0.0570648
-0.0584768
-0.0598589
-0.0612742
-0.0627531
-0.0642527
-0.065764
-0.0673367
-0.068933
-0.0705209
-0.0721205
-0.0737811
-0.0754501
-0.0771459
-0.0788921
-0.0806698
-0.082484
-0.084356
-0.0862815
-0.0882135
-0.0901613
-0.092124
-0.0940926
-0.0961322
-0.0982475
-0.100422
-0.102599
-0.104815
-0.107054
-0.109342
-0.111674
-0.114048
-0.116483
-0.118942
-0.121465
-0.124024
-0.12665
-0.129272
-0.131967
-0.134644
-0.137427
-0.140228
-0.143017
-0.145931
-0.148688
-0.151283
-0.153924
0.0342637
0.0272445
0.0137568
0.0041902
-0.000281007
-0.0017533
-0.0025532
-0.00382588
-0.00565933
-0.00758781
-0.0090876
-0.0100947
-0.0109834
-0.012039
-0.0132357
-0.0144289
-0.0154764
-0.016308
-0.0171032
-0.0180753
-0.0191459
-0.0201528
-0.0211048
-0.0220591
-0.0230248
-0.0240274
-0.0250755
-0.0261294
-0.0272225
-0.0284449
-0.0297614
-0.0310264
-0.0321357
-0.0331183
-0.0340843
-0.0351146
-0.0361912
-0.0372632
-0.0383376
-0.0394671
-0.0406308
-0.0417889
-0.0429534
-0.0441444
-0.0453217
-0.0464967
-0.0477126
-0.048971
-0.050252
-0.051565
-0.0528953
-0.0542508
-0.0556457
-0.0570644
-0.0584765
-0.0598586
-0.0612738
-0.0627528
-0.0642523
-0.0657637
-0.0673364
-0.0689327
-0.0705206
-0.0721202
-0.0737809
-0.0754499
-0.0771457
-0.0788919
-0.0806696
-0.0824838
-0.0843557
-0.0862813
-0.0882133
-0.0901611
-0.0921238
-0.0940924
-0.096132
-0.0982473
-0.100422
-0.102599
-0.104815
-0.107054
-0.109341
-0.111674
-0.114048
-0.116483
-0.118941
-0.121465
-0.124024
-0.12665
-0.129271
-0.131967
-0.134643
-0.137427
-0.140228
-0.143017
-0.145931
-0.148688
-0.151284
-0.153924
0.0325716
0.0267974
0.0139916
0.00447681
-0.000103069
-0.00168843
-0.00253415
-0.00380726
-0.00562948
-0.00754349
-0.00903662
-0.0100548
-0.0109647
-0.0120368
-0.0132375
-0.0144247
-0.0154668
-0.0163002
-0.0170997
-0.0180719
-0.0191396
-0.0201456
-0.0210996
-0.0220571
-0.0230248
-0.0240267
-0.0250726
-0.0261255
-0.0272196
-0.028443
-0.0297591
-0.0310231
-0.032132
-0.0331151
-0.0340818
-0.035112
-0.0361885
-0.0372608
-0.0383358
-0.0394655
-0.0406292
-0.0417875
-0.0429523
-0.0441434
-0.0453207
-0.0464957
-0.0477118
-0.0489702
-0.0502512
-0.0515644
-0.0528947
-0.0542503
-0.0556452
-0.057064
-0.0584761
-0.0598582
-0.0612734
-0.0627523
-0.064252
-0.0657634
-0.0673361
-0.0689324
-0.0705203
-0.07212
-0.0737806
-0.0754496
-0.0771454
-0.0788916
-0.0806693
-0.0824835
-0.0843555
-0.0862811
-0.0882131
-0.0901609
-0.0921236
-0.0940922
-0.0961317
-0.0982471
-0.100422
-0.102599
-0.104815
-0.107054
-0.109341
-0.111674
-0.114048
-0.116483
-0.118941
-0.121465
-0.124024
-0.12665
-0.129271
-0.131967
-0.134643
-0.137427
-0.140228
-0.143016
-0.145932
-0.148688
-0.151284
-0.153925
0.0309162
0.0262591
0.0142118
0.0047692
7.77911e-05
-0.00162286
-0.00251778
-0.00379101
-0.00559978
-0.00749786
-0.00898327
-0.0100121
-0.0109441
-0.0120344
-0.0132402
-0.0144216
-0.0154579
-0.0162931
-0.017097
-0.0180683
-0.0191317
-0.0201362
-0.0210928
-0.0220544
-0.0230251
-0.0240266
-0.02507
-0.0261218
-0.0272172
-0.0284417
-0.029757
-0.0310192
-0.0321273
-0.0331111
-0.0340786
-0.0351086
-0.0361846
-0.0372575
-0.0383334
-0.0394635
-0.0406272
-0.0417857
-0.0429509
-0.0441422
-0.0453194
-0.0464945
-0.0477108
-0.0489693
-0.0502503
-0.0515635
-0.052894
-0.0542496
-0.0556446
-0.0570634
-0.0584757
-0.0598578
-0.0612729
-0.0627518
-0.0642515
-0.0657631
-0.0673358
-0.0689321
-0.07052
-0.0721197
-0.0737803
-0.0754493
-0.0771451
-0.0788914
-0.0806691
-0.0824832
-0.0843552
-0.0862809
-0.0882129
-0.0901607
-0.0921234
-0.094092
-0.0961314
-0.0982468
-0.100422
-0.102598
-0.104814
-0.107054
-0.109341
-0.111674
-0.114048
-0.116483
-0.118941
-0.121465
-0.124024
-0.12665
-0.129271
-0.131967
-0.134643
-0.137427
-0.140228
-0.143016
-0.145932
-0.148688
-0.151285
-0.153927
0.029311
0.0256283
0.0144055
0.00506492
0.000263425
-0.00155412
-0.00250287
-0.00377733
-0.00557076
-0.00745143
-0.00892835
-0.0099676
-0.0109223
-0.0120318
-0.0132439
-0.0144197
-0.0154499
-0.016287
-0.0170952
-0.0180649
-0.019123
-0.0201254
-0.0210847
-0.0220511
-0.0230253
-0.0240269
-0.0250678
-0.0261186
-0.0272155
-0.0284412
-0.0297553
-0.0310151
-0.032122
-0.0331065
-0.0340749
-0.0351045
-0.0361797
-0.0372531
-0.0383303
-0.0394608
-0.0406245
-0.0417835
-0.0429492
-0.0441406
-0.0453178
-0.0464931
-0.0477097
-0.0489682
-0.0502492
-0.0515623
-0.052893
-0.0542488
-0.0556438
-0.0570626
-0.0584751
-0.0598573
-0.0612723
-0.062751
-0.0642509
-0.0657626
-0.0673355
-0.0689318
-0.0705197
-0.0721194
-0.07378
-0.075449
-0.0771447
-0.0788911
-0.0806687
-0.0824828
-0.0843549
-0.0862807
-0.0882127
-0.0901604
-0.0921232
-0.0940917
-0.0961311
-0.0982465
-0.100422
-0.102598
-0.104814
-0.107053
-0.109341
-0.111674
-0.114047
-0.116482
-0.118941
-0.121465
-0.124024
-0.12665
-0.129271
-0.131967
-0.134643
-0.137427
-0.140228
-0.143016
-0.145932
-0.148689
-0.151286
-0.153928
0.0277679
0.024907
0.014562
0.00536303
0.0004569
-0.00147946
-0.00248836
-0.00376723
-0.00554368
-0.0074049
-0.00887231
-0.00992166
-0.0108995
-0.0120295
-0.0132486
-0.014419
-0.0154427
-0.0162814
-0.0170944
-0.0180625
-0.0191144
-0.020114
-0.0210758
-0.0220474
-0.0230255
-0.0240275
-0.0250662
-0.026116
-0.0272146
-0.0284416
-0.0297544
-0.0310113
-0.0321165
-0.0331016
-0.034071
-0.0350999
-0.0361738
-0.0372478
-0.0383265
-0.0394577
-0.0406215
-0.041781
-0.0429474
-0.0441388
-0.0453158
-0.0464915
-0.0477084
-0.048967
-0.0502478
-0.0515609
-0.0528917
-0.0542476
-0.0556426
-0.0570614
-0.0584743
-0.0598568
-0.0612716
-0.0627501
-0.0642501
-0.0657621
-0.067335
-0.0689313
-0.0705194
-0.0721192
-0.0737798
-0.0754487
-0.0771444
-0.0788908
-0.0806684
-0.0824824
-0.0843545
-0.0862804
-0.0882125
-0.0901602
-0.092123
-0.0940914
-0.0961308
-0.0982462
-0.100421
-0.102598
-0.104814
-0.107053
-0.109341
-0.111673
-0.114047
-0.116482
-0.118941
-0.121465
-0.124024
-0.126649
-0.129271
-0.131967
-0.134643
-0.137427
-0.140228
-0.143016
-0.145932
-0.148689
-0.151288
-0.15393
0.0262998
0.0241027
0.0146731