/*--------------------------------*- C++ -*----------------------------------*\
| =========                 |                                                 |
| \\      /  F ield         | OpenFOAM: The Open Source CFD Toolbox           |
|  \\    /   O peration     | Version:  2506                                  |
|   \\  /    A nd           | Website:  www.openfoam.com                      |
|    \\/     M anipulation  |                                                 |
\*---------------------------------------------------------------------------*/
FoamFile
{
    version     2.0;
    format      ascii;
    arch        "LSB;label=32;scalar=64";
    class       surfaceScalarField;
    location    "6.45";
    object      phi;
}
// * * * * * * * * * * * * * * * * * * * * * * * * * * * * * * * * * * * * * //

dimensions      [0 3 -1 0 0 0 0];

oriented        oriented;

internalField   nonuniform List<scalar> 
19000
(
1.15605e-06
-2.23021e-07
1.16047e-06
-5.2251e-07
1.16283e-06
8.11416e-07
1.14358e-06
1.82957e-08
1.14663e-06
1.10906e-06
1.11593e-06
-1.59944e-06
1.19465e-06
6.01949e-07
1.15142e-06
-1.87708e-06
1.19005e-06
2.1404e-07
1.20054e-06
8.10275e-07
1.17634e-06
5.309e-07
1.19407e-06
9.46517e-07
1.15889e-06
3.82324e-07
1.14782e-06
3.43061e-07
1.14296e-06
2.58393e-07
1.1181e-06
-3.94211e-07
1.14073e-06
9.46813e-08
1.08413e-06
-7.93286e-07
1.11447e-06
-6.66631e-08
-7.67138e-07
1.00398e-06
1.21289e-06
-2.11649e-07
1.21677e-06
-5.26393e-07
1.21768e-06
8.10505e-07
1.20072e-06
3.52574e-08
1.19919e-06
1.1106e-06
1.16932e-06
-1.56957e-06
1.24278e-06
5.28498e-07
1.2031e-06
-1.83741e-06
1.23527e-06
1.81872e-07
1.26589e-06
7.79661e-07
1.2275e-06
5.6929e-07
1.25201e-06
9.22008e-07
1.21586e-06
4.18472e-07
1.20706e-06
3.51859e-07
1.1963e-06
2.69159e-07
1.1884e-06
-3.86319e-07
1.19494e-06
8.81454e-08
1.1672e-06
-7.65551e-07
1.16849e-06
-6.79549e-08
-7.05497e-07
1.10685e-06
1.27297e-06
-2.01839e-07
1.2762e-06
-5.29618e-07
1.27769e-06
8.09013e-07
1.26057e-06
5.2382e-08
1.2572e-06
1.11397e-06
1.22768e-06
-1.54006e-06
1.29445e-06
4.61727e-07
1.26192e-06
-1.80488e-06
1.28441e-06
1.59378e-07
1.32603e-06
7.38042e-07
1.28639e-06
6.08932e-07
1.3001e-06
9.08297e-07
1.27623e-06
4.42339e-07
1.26316e-06
3.64933e-07
1.26167e-06
2.70647e-07
1.25364e-06
-3.78293e-07
1.26518e-06
7.66082e-08
1.2416e-06
-7.41969e-07
1.24732e-06
-7.36724e-08
-6.55941e-07
1.19776e-06
1.33613e-06
-1.9387e-07
1.33874e-06
-5.32224e-07
1.34171e-06
8.06046e-07
1.32453e-06
6.95594e-08
1.31994e-06
1.11856e-06
1.29157e-06
-1.51169e-06
1.34855e-06
4.04745e-07
1.3276e-06
-1.78392e-06
1.33858e-06
1.48395e-07
1.38232e-06
6.94301e-07
1.35133e-06
6.39924e-07
1.35156e-06
9.0807e-07
1.33813e-06
4.55769e-07
1.32966e-06
3.73403e-07
1.32975e-06
2.7055e-07
1.32356e-06
-3.72095e-07
1.33251e-06
6.76537e-08
1.30633e-06
-7.15788e-07
1.31243e-06
-7.97753e-08
-6.02189e-07
1.25868e-06
1.40227e-06
-1.87783e-07
1.40402e-06
-5.33982e-07
1.40869e-06
8.0138e-07
1.39226e-06
8.59894e-08
1.38785e-06
1.12297e-06
1.3607e-06
-1.48454e-06
1.40635e-06
3.59099e-07
1.39574e-06
-1.77332e-06
1.40079e-06
1.43349e-07
1.43926e-06
6.55831e-07
1.42095e-06
6.5823e-07
1.41482e-06
9.14207e-07
1.40647e-06
4.64112e-07
1.40319e-06
3.7669e-07
1.40461e-06
2.69132e-07
1.39683e-06
-3.64317e-07
1.40582e-06
5.86601e-08
1.37583e-06
-6.85795e-07
1.38281e-06
-8.67611e-08
-5.4689e-07
1.32751e-06
1.47118e-06
-1.83284e-07
1.47175e-06
-5.34549e-07
1.47765e-06
7.95475e-07
1.4634e-06
1.00239e-07
1.46089e-06
1.12548e-06
1.43454e-06
-1.4582e-06
1.46848e-06
3.25165e-07
1.46315e-06
-1.76799e-06
1.46932e-06
1.37181e-07
1.50102e-06
6.24135e-07
1.49384e-06
6.65407e-07
1.48776e-06
9.20292e-07
1.48155e-06
4.70317e-07
1.48106e-06
3.77181e-07
1.48257e-06
2.67622e-07
1.47282e-06
-3.54563e-07
1.48081e-06
5.06624e-08
1.44727e-06
-6.52253e-07
1.45456e-06
-9.40482e-08
-4.90532e-07
1.3982e-06
1.54262e-06
-1.79686e-07
1.54184e-06
-5.33773e-07
1.54848e-06
7.88841e-07
1.53785e-06
1.10861e-07
1.53861e-06
1.12473e-06
1.51265e-06
-1.43225e-06
1.53545e-06
3.02372e-07
1.5294e-06
-1.76195e-06
1.54099e-06
1.25593e-07
1.56827e-06
5.96857e-07
1.56909e-06
6.64586e-07
1.56551e-06
9.2387e-07
1.56039e-06
4.75444e-07
1.56131e-06
3.76255e-07
1.56246e-06
2.66476e-07
1.55086e-06
-3.42965e-07
1.55854e-06
4.2983e-08
1.52194e-06
-6.15658e-07
1.52953e-06
-1.01637e-07
-4.33977e-07
1.47298e-06
1.61652e-06
-1.76074e-07
1.61456e-06
-5.31815e-07
1.62188e-06
7.8152e-07
1.61569e-06
1.17048e-07
1.62024e-06
1.12019e-06
1.5945e-06
-1.40651e-06
1.6076e-06
2.8928e-07
1.59591e-06
-1.75026e-06
1.61383e-06
1.07672e-07
1.6394e-06
5.71289e-07
1.64568e-06
6.58302e-07
1.64479e-06
9.2476e-07
1.64069e-06
4.79542e-07
1.64291e-06
3.74035e-07
1.64418e-06
2.65211e-07
1.63106e-06
-3.29845e-07
1.63893e-06
3.51112e-08
1.59991e-06
-5.76642e-07
1.60785e-06
-1.09572e-07
-3.7821e-07
1.55208e-06
1.69315e-06
-1.71645e-07
1.69038e-06
-5.29053e-07
1.6988e-06
7.73099e-07
1.697e-06
1.18854e-07
1.70499e-06
1.1122e-06
1.6794e-06
-1.38093e-06
1.68508e-06
2.83604e-07
1.6648e-06
-1.72998e-06
1.68748e-06
8.49879e-08
1.71245e-06
5.46324e-07
1.72257e-06
6.48176e-07
1.72428e-06
9.23054e-07
1.72192e-06
4.81906e-07
1.72589e-06
3.70058e-07
1.72805e-06
2.63059e-07
1.71362e-06
-3.15416e-07
1.72198e-06
2.67471e-08
1.68124e-06
-5.35904e-07
1.6895e-06
-1.17823e-07
-3.24465e-07
1.63575e-06
1.77304e-06
-1.65963e-07
1.76986e-06
-5.25871e-07
1.77987e-06
7.63091e-07
1.78178e-06
1.16936e-07
1.79238e-06
1.1016e-06
1.76674e-06
-1.35528e-06
1.76785e-06
2.82489e-07
1.73803e-06
-1.70016e-06
1.76269e-06
6.03325e-08
1.78646e-06
5.22554e-07
1.79961e-06
6.35027e-07
1.80439e-06
9.18273e-07
1.80482e-06
4.8148e-07
1.81103e-06
3.63842e-07
1.81454e-06
2.59556e-07
1.79876e-06
-2.99636e-07
1.80755e-06
1.7957e-08
1.76578e-06
-4.94143e-07
1.77413e-06
-1.26166e-07
-2.74005e-07
1.72367e-06
1.85681e-06
-1.59028e-07
1.85344e-06
-5.22498e-07
1.86526e-06
7.51275e-07
1.87005e-06
1.12138e-07
1.8824e-06
1.08925e-06
1.85627e-06
-1.32916e-06
1.85566e-06
2.83094e-07
1.81696e-06
-1.66146e-06
1.841e-06
3.62976e-08
1.86228e-06
5.0127e-07
1.87828e-06
6.19024e-07
1.887e-06
9.09555e-07
1.89092e-06
4.77555e-07
1.89931e-06
3.55453e-07
1.90406e-06
2.54805e-07
1.88668e-06
-2.82252e-07
1.89549e-06
9.1432e-09
1.8534e-06
-4.52049e-07
1.86142e-06
-1.3419e-07
-2.27868e-07
1.81529e-06
1.945e-06
-1.51192e-07
1.94144e-06
-5.18939e-07
1.95489e-06
7.37831e-07
1.96178e-06
1.05243e-07
1.97534e-06
1.0757e-06
1.94823e-06
-1.30205e-06
1.94812e-06
2.83199e-07
1.90225e-06
-1.61559e-06
1.92446e-06
1.408e-08
1.94241e-06
4.83321e-07
1.9614e-06
6.00032e-07
1.97454e-06
8.96419e-07
1.98173e-06
4.70365e-07
1.9914e-06
3.45785e-07
1.99673e-06
2.4947e-07
1.9775e-06
-2.6302e-07
1.9858e-06
8.46179e-10
1.94403e-06
-4.10283e-07
1.95121e-06
-1.41368e-07
-1.86744e-07
1.91009e-06
2.038e-06
-1.43e-07
2.03405e-06
-5.14993e-07
2.04861e-06
7.2327e-07
2.0569e-06
9.69557e-08
2.0716e-06
1.06101e-06
2.04314e-06
-1.27359e-06
2.04485e-06
2.81486e-07
1.99401e-06
-1.56474e-06
2.01482e-06
-6.73021e-09
2.02957e-06
4.68566e-07
2.05154e-06
5.78063e-07
2.0685e-06
8.79458e-07
2.07775e-06
4.61123e-07
2.08728e-06
3.36252e-07
2.09229e-06
2.4446e-07
2.0713e-06
-2.42032e-07
2.07864e-06
-6.4912e-09
2.03785e-06
-3.69496e-07
2.04366e-06
-1.4717e-07
-1.50983e-07
2.0079e-06
2.13601e-06
-1.35012e-07
2.13137e-06
-5.10352e-07
2.14639e-06
7.08253e-07
2.15537e-06
8.79716e-08
2.17153e-06
1.04485e-06
2.14156e-06
-1.24362e-06
2.14569e-06
2.77361e-07
2.09197e-06
-1.51103e-06
2.11244e-06
-2.71976e-08
2.1248e-06
4.56207e-07
2.14934e-06
5.53521e-07
2.16849e-06
8.60308e-07
2.1782e-06
4.51413e-07
2.18645e-06
3.28004e-07
2.19045e-06
2.40456e-07
2.16832e-06
-2.19898e-07
2.1745e-06
-1.26762e-08
2.13532e-06
-3.30316e-07
2.13935e-06
-1.51192e-07
-1.20614e-07
2.10898e-06
2.23912e-06
-1.27642e-07
2.2335e-06
-5.04733e-07
2.24837e-06
6.93378e-07
2.25739e-06
7.89552e-08
2.27546e-06
1.02678e-06
2.24398e-06
-1.21214e-06
2.25075e-06
2.70586e-07
2.19564e-06
-1.45591e-06
2.21623e-06
-4.77923e-08
2.22684e-06
4.45596e-07
2.25327e-06
5.27093e-07
2.27272e-06
8.40858e-07
2.28175e-06
4.42378e-07
2.28852e-06
3.21242e-07
2.29136e-06
2.37615e-07
2.26907e-06
-1.97612e-07
2.27414e-06
-1.77436e-08
2.23709e-06
-2.93268e-07
2.23916e-06
-1.53264e-07
-9.53465e-08
2.2139e-06
2.3473e-06
-1.21063e-07
2.34057e-06
-4.98004e-07
2.35492e-06
6.79026e-07
2.36345e-06
7.04256e-08
2.38377e-06
1.00645e-06
2.35077e-06
-1.17913e-06
2.36033e-06
2.61026e-07
2.30446e-06
-1.40004e-06
2.32462e-06
-6.79542e-08
2.33345e-06
4.36774e-07
2.36107e-06
4.99473e-07
2.37963e-06
8.22291e-07
2.38766e-06
4.34349e-07
2.39374e-06
3.15163e-07
2.39572e-06
2.3564e-07
2.3743e-06
-1.76192e-07
2.37837e-06
-2.18197e-08
2.34379e-06
-2.58683e-07
2.34396e-06
-1.53436e-07
-7.46662e-08
2.32328e-06
2.46055e-06
-1.15217e-07
2.45278e-06
-4.90234e-07
2.46648e-06
6.65324e-07
2.47425e-06
6.26624e-08
2.4969e-06
9.83791e-07
2.46234e-06
-1.14457e-06
2.47475e-06
2.48618e-07
2.41811e-06
-1.3434e-06
2.43683e-06
-8.66731e-08
2.44329e-06
4.30315e-07
2.47157e-06
4.71191e-07
2.48914e-06
8.04715e-07
2.49641e-06
4.2708e-07
2.50307e-06
3.08507e-07
2.50459e-06
2.34124e-07
2.48473e-06
-1.56336e-07
2.48793e-06
-2.50227e-08
2.45585e-06
-2.26597e-07
2.45431e-06
-1.51897e-07
-5.7992e-08
2.43763e-06
2.57897e-06
-1.09898e-07
2.5704e-06
-4.81659e-07
2.58351e-06
6.52218e-07
2.59045e-06
5.57164e-08
2.61529e-06
9.58954e-07
2.57911e-06
-1.10839e-06
2.59429e-06
2.33433e-07
2.53654e-06
-1.28565e-06
2.55319e-06
-1.03325e-07
2.55675e-06
4.2676e-07
2.5853e-06
4.42632e-07
2.60255e-06
7.87469e-07
2.60936e-06
4.20268e-07
2.61767e-06
3.002e-07
2.61896e-06
2.3283e-07
2.60089e-06
-1.3826e-07
2.60335e-06
-2.74842e-08
2.5735e-06
-1.96752e-07
2.5705e-06
-1.4889e-07
-4.4829e-08
2.55733e-06
2.70279e-06
-1.04857e-07
2.69372e-06
-4.72589e-07
2.70636e-06
6.39575e-07
2.71257e-06
4.95067e-08
2.7393e-06
9.32221e-07
2.70147e-06
-1.07055e-06
2.71922e-06
2.15683e-07
2.66e-06
-1.22643e-06
2.6747e-06
-1.18024e-07
2.67526e-06
4.26198e-07
2.70376e-06
4.14128e-07
2.72155e-06
7.69677e-07
2.72794e-06
4.13881e-07
2.73842e-06
2.89724e-07
2.73956e-06
2.31692e-07
2.72304e-06
-1.21747e-07
2.72498e-06
-2.94259e-08
2.69695e-06
-1.68714e-07
2.69264e-06
-1.44584e-07
-3.48296e-08
2.68264e-06
2.83229e-06
-9.98741e-08
2.82303e-06
-4.63329e-07
2.83534e-06
6.27258e-07
2.84092e-06
4.39255e-08
2.86926e-06
9.0388e-07
2.82975e-06
-1.03104e-06
2.84978e-06
1.9566e-07
2.78889e-06
-1.16554e-06
2.80227e-06
-1.314e-07
2.80024e-06
4.28223e-07
2.82834e-06
3.86032e-07
2.84742e-06
7.50595e-07
2.85311e-06
4.08186e-07
2.86581e-06
2.77026e-07
2.86677e-06
2.30736e-07
2.85131e-06
-1.0629e-07
2.85305e-06
-3.1168e-08
2.82643e-06
-1.42087e-07
2.82081e-06
-1.38964e-07
-2.78132e-08
2.81379e-06
2.9678e-06
-9.47764e-08
2.9586e-06
-4.54133e-07
2.97071e-06
6.15153e-07
2.97573e-06
3.89007e-08
3.00546e-06
8.74153e-07
2.96426e-06
-9.89844e-07
2.98625e-06
1.73666e-07
2.92366e-06
-1.10295e-06
2.93645e-06
-1.44182e-07
2.93255e-06
4.3212e-07
2.95983e-06
3.5875e-07
2.98077e-06
7.29662e-07
2.98535e-06
4.03601e-07
3e-06
2.62375e-07
3.00087e-06
2.2987e-07
2.98579e-06
-9.12129e-08
2.98768e-06
-3.30631e-08
2.96227e-06
-1.16676e-07
2.95512e-06
-1.31816e-07
-2.36615e-08
2.95097e-06
3.10967e-06
-8.94408e-08
3.10073e-06
-4.45189e-07
3.11272e-06
6.0316e-07
3.11721e-06
3.44115e-08
3.14819e-06
8.43174e-07
3.10527e-06
-9.46927e-07
3.12896e-06
1.49982e-07
3.06476e-06
-1.03876e-06
3.07749e-06
-1.5691e-07
3.07255e-06
4.3706e-07
3.09855e-06
3.32751e-07
3.12177e-06
7.06441e-07
3.12488e-06
4.00497e-07
3.14102e-06
2.46234e-07
3.14208e-06
2.2881e-07
3.12664e-06
-7.57758e-08
3.12897e-06
-3.53886e-08
3.1049e-06
-9.26149e-08
3.09582e-06
-1.22733e-07
-2.2185e-08
3.09435e-06
3.25825e-06
-8.37851e-08
3.24968e-06
-4.36615e-07
3.26165e-06
5.91189e-07
3.26558e-06
3.04858e-08
3.29776e-06
8.10995e-07
3.25311e-06
-9.02283e-07
3.27823e-06
1.24863e-07
3.21262e-06
-9.73146e-07
3.22554e-06
-1.69836e-07
3.22039e-06
4.42211e-07
3.24459e-06
3.08555e-07
3.27046e-06
6.80575e-07
3.27185e-06
3.99099e-07
3.2889e-06
2.29192e-07
3.29062e-06
2.27085e-07
3.27417e-06
-5.93285e-08
3.27699e-06
-3.82093e-08
3.25478e-06
-7.04064e-08
3.24329e-06
-1.11236e-07
-2.29694e-08
3.24407e-06
3.41391e-06
-7.77632e-08
3.40576e-06
-4.28468e-07
3.4178e-06
5.79152e-07
3.4211e-06
2.71873e-08
3.45449e-06
7.77605e-07
3.40813e-06
-8.55925e-07
3.43444e-06
9.85542e-08
3.36767e-06
-9.0638e-07
3.38077e-06
-1.82934e-07
3.3762e-06
4.46779e-07
3.39803e-06
2.86728e-07
3.42681e-06
6.5179e-07
3.4265e-06
3.9941e-07
3.44374e-06
2.11955e-07
3.44668e-06
2.24142e-07
3.42884e-06
-4.14904e-08
3.43188e-06
-4.12456e-08
3.41222e-06
-5.07446e-08
3.39808e-06
-9.71011e-08
-2.52213e-08
3.40034e-06
3.57701e-06
-7.13644e-08
3.56928e-06
-4.20736e-07
3.58146e-06
5.66969e-07
3.58405e-06
2.46066e-08
3.6187e-06
7.42948e-07
3.57068e-06
-8.07906e-07
3.59794e-06
7.13019e-08
3.53037e-06
-8.38812e-07
3.54338e-06
-1.95951e-07
3.54014e-06
4.50026e-07
3.55905e-06
2.6782e-07
3.59085e-06
6.19985e-07
3.58912e-06
4.01139e-07
3.60571e-06
1.95368e-07
3.61047e-06
2.19382e-07
3.59117e-06
-2.21919e-08
3.59381e-06
-4.38816e-08
3.57741e-06
-3.43445e-08
3.56089e-06
-8.05833e-08
-2.77389e-08
3.56341e-06
3.74795e-06
-6.46118e-08
3.74057e-06
-4.13353e-07
3.75298e-06
5.5456e-07
3.75474e-06
2.28498e-08
3.79072e-06
7.06959e-07
3.74115e-06
-7.58333e-07
3.76908e-06
4.3374e-08
3.70116e-06
-7.70896e-07
3.71365e-06
-2.08442e-07
3.71242e-06
4.51262e-07
3.72791e-06
2.52329e-07
3.76265e-06
5.85241e-07
3.76003e-06
4.03761e-07
3.77508e-06
1.80323e-07
3.78216e-06
2.12297e-07
3.76169e-06
-1.7248e-09
3.76307e-06
-4.52571e-08
3.7505e-06
-2.17709e-08
3.73232e-06
-6.24061e-08
-2.91459e-08
3.73372e-06
3.92713e-06
-5.75566e-08
3.91998e-06
-4.06202e-07
3.9327e-06
5.41842e-07
3.93352e-06
2.20343e-08
3.97088e-06
6.69592e-07
3.91992e-06
-7.07369e-07
3.94821e-06
1.50847e-08
3.88051e-06
-7.03197e-07
3.89189e-06
-2.19819e-07
3.89332e-06
4.49832e-07
3.905e-06
2.4064e-07
3.94235e-06
5.47897e-07
3.93961e-06
4.06499e-07
3.95224e-06
1.67692e-07
3.96188e-06
2.02656e-07
3.94092e-06
1.92347e-08
3.94014e-06
-4.44746e-08
3.93158e-06
-1.32084e-08
3.91281e-06
-4.36379e-08
-2.82763e-08
3.91194e-06
4.11496e-06
-5.02691e-08
4.1079e-06
-3.9914e-07
4.12102e-06
5.2872e-07
4.12077e-06
2.2284e-08
4.15952e-06
6.30844e-07
4.10739e-06
-6.55242e-07
4.13566e-06
-1.31798e-08
4.06885e-06
-6.36388e-07
4.07845e-06
-2.29419e-07
4.08313e-06
4.45156e-07
4.09083e-06
2.32936e-07
4.13017e-06
5.0856e-07
4.12821e-06
4.0846e-07
4.1377e-06
1.582e-07
4.1498e-06
1.9055e-07
4.12928e-06
3.97614e-08
4.12566e-06
-4.08549e-08
4.12074e-06
-8.28962e-09
4.10271e-06
-2.56075e-08
-2.43762e-08
4.09881e-06
4.31186e-06
-4.28271e-08
4.30473e-06
-3.92014e-07
4.31838e-06
5.15071e-07
4.31694e-06
2.373e-08
4.35701e-06
5.9077e-07
4.304e-06
-6.02235e-07
4.33179e-06
-4.09642e-08
4.26661e-06
-5.71211e-07
4.27376e-06
-2.3657e-07
4.28218e-06
4.3674e-07
4.28595e-06
2.29163e-07
4.32641e-06
4.68098e-07
4.32614e-06
4.08728e-07
4.33203e-06
1.52313e-07
4.34611e-06
1.7647e-07
4.32708e-06
5.87946e-08
4.32026e-06
-3.40392e-08
4.31812e-06
-6.14426e-09
4.30217e-06
-9.66506e-09
-1.72896e-08
4.29509e-06
4.51825e-06
-3.53064e-08
4.51092e-06
-3.84677e-07
4.52524e-06
5.00746e-07
4.52247e-06
2.64982e-08
4.56374e-06
5.49504e-07
4.51021e-06
-5.48703e-07
4.53697e-06
-6.77245e-08
4.47423e-06
-5.08473e-07
4.47827e-06
-2.40614e-07
4.4908e-06
4.24214e-07
4.49096e-06
2.29001e-07
4.53148e-06
4.27576e-07
4.53375e-06
4.06462e-07
4.53583e-06
1.50235e-07
4.55112e-06
1.61179e-07
4.53453e-06
7.53873e-08
4.52458e-06
-2.4096e-08
4.52408e-06
-5.63699e-09
4.51118e-06
3.22891e-09
-7.63214e-09
4.50152e-06
4.73458e-06
-2.77752e-08
4.7269e-06
-3.76997e-07
4.74209e-06
4.85564e-07
4.73787e-06
3.07119e-08
4.78012e-06
5.07255e-07
4.72651e-06
-4.95092e-07
4.75162e-06
-9.28356e-08
4.69213e-06
-4.48986e-07
4.6925e-06
-2.40985e-07
4.70924e-06
4.07476e-07
4.70645e-06
2.31791e-07
4.74585e-06
3.88175e-07
4.75128e-06
4.01032e-07
4.74974e-06
1.51779e-07
4.76524e-06
1.45681e-07
4.75181e-06
8.88139e-08
4.73928e-06
-1.15613e-08
4.7391e-06
-5.46202e-09
4.72984e-06
1.24901e-08
3.54434e-09
4.71866e-06
4.96132e-06
-2.0293e-08
4.95317e-06
-3.68853e-07
4.9694e-06
4.69332e-07
4.96365e-06
3.64691e-08
5.00659e-06
4.64309e-07
4.95343e-06
-4.41927e-07
4.97622e-06
-1.15629e-07
4.92074e-06
-3.93505e-07
4.91703e-06
-2.37275e-07
4.93776e-06
3.86746e-07
4.93293e-06
2.36618e-07
4.97008e-06
3.51027e-07
4.979e-06
3.92111e-07
4.97443e-06
1.5635e-07
4.98901e-06
1.3111e-07
4.97921e-06
9.86092e-08
4.96496e-06
2.6904e-09
4.96389e-06
-4.39096e-09
4.95823e-06
1.81426e-08
1.48671e-08
4.94691e-06
5.19894e-06
-1.29161e-08
5.19021e-06
-3.60124e-07
5.20767e-06
4.51874e-07
5.20033e-06
4.38102e-08
5.24361e-06
4.21025e-07
5.19151e-06
-3.89821e-07
5.21129e-06
-1.35413e-07
5.16048e-06
-3.42694e-07
5.15249e-06
-2.29282e-07
5.17665e-06
3.6258e-07
5.17089e-06
2.42377e-07
5.2048e-06
3.17119e-07
5.21722e-06
3.79687e-07
5.21048e-06
1.6309e-07
5.22306e-06
1.18529e-07
5.21706e-06
1.04611e-07
5.20212e-06
1.76309e-08
5.19933e-06
-1.5992e-09
5.19653e-06
2.09391e-08
2.48338e-08
5.18657e-06
5.44797e-06
-5.70104e-09
5.43854e-06
-3.50691e-07
5.45735e-06
4.33069e-07
5.44847e-06
5.26814e-08
5.49167e-06
3.77834e-07
5.44129e-06
-3.39445e-07
5.4574e-06
-1.51528e-07
5.41177e-06
-2.97062e-07
5.39958e-06
-2.17088e-07
5.42633e-06
3.35827e-07
5.42077e-06
2.47936e-07
5.4507e-06
2.8719e-07
5.46634e-06
3.64047e-07
5.45838e-06
1.71047e-07
5.46827e-06
1.08647e-07
5.46574e-06
1.07139e-07
5.45113e-06
3.22429e-08
5.44638e-06
3.15071e-09
5.44521e-06
2.21061e-08
3.23835e-08
5.43766e-06
5.70897e-06
1.28759e-09
5.6987e-06
-3.4042e-07
5.7189e-06
4.12872e-07
5.70867e-06
6.2906e-08
5.75126e-06
3.35241e-07
5.70332e-06
-2.91506e-07
5.71518e-06
-1.63381e-07
5.67503e-06
-2.56913e-07
5.65909e-06
-2.01148e-07
5.68733e-06
3.07589e-07
5.68296e-06
2.52305e-07
5.70854e-06
2.61612e-07
5.72682e-06
3.45764e-07
5.71866e-06
1.79202e-07
5.7255e-06
1.01811e-07
5.72573e-06
1.06904e-07
5.71234e-06
4.56395e-08
5.70577e-06
9.72167e-09
5.70511e-06
2.27616e-08
3.72203e-08
5.70027e-06
5.9825e-06
7.9755e-09
5.97126e-06
-3.29177e-07
5.99281e-06
3.91322e-07
5.98155e-06
7.41701e-08
6.02297e-06
2.93821e-07
5.97814e-06
-2.46679e-07
5.9853e-06
-1.70537e-07
5.95067e-06
-2.22286e-07
5.93178e-06
-1.82254e-07
5.96029e-06
2.79074e-07
5.95786e-06
2.54739e-07
5.97908e-06
2.40393e-07
5.99922e-06
3.25617e-07
5.99178e-06
1.86642e-07
5.99554e-06
9.80496e-08
5.99772e-06
1.04726e-07
5.98605e-06
5.73112e-08
5.97823e-06
1.75403e-08
5.97709e-06
2.39036e-08
3.97151e-08
5.9746e-06
6.26919e-06
1.4277e-08
6.25684e-06
-3.16834e-07
6.27965e-06
3.68515e-07
6.26774e-06
8.60816e-08
6.3074e-06
2.54159e-07
6.26628e-06
-2.05559e-07
6.26848e-06
-1.72739e-07
6.23914e-06
-1.92942e-07
6.21829e-06
-1.61407e-07
6.24596e-06
2.51407e-07
6.24589e-06
2.54812e-07
6.26306e-06
2.23216e-07
6.2842e-06
3.04485e-07
6.27824e-06
1.926e-07
6.27912e-06
9.71706e-08
6.28242e-06
1.0142e-07
6.27276e-06
6.69738e-08
6.2643e-06
2.60045e-08
6.26222e-06
2.59755e-08
4.08082e-08
6.26113e-06
6.56965e-06
2.00993e-08
6.55609e-06
-3.03279e-07
6.58007e-06
3.44537e-07
6.56789e-06
9.82613e-08
6.60521e-06
2.16837e-07
6.56831e-06
-1.68655e-07
6.56551e-06
-1.69938e-07
6.54098e-06
-1.68417e-07
6.51918e-06
-1.39604e-07
6.54511e-06
2.25479e-07
6.54757e-06
2.52347e-07
6.56116e-06
2.09629e-07
6.5825e-06
2.83144e-07
6.57843e-06
1.96674e-07
6.57694e-06
9.86563e-08
6.58059e-06
9.77665e-08
6.57305e-06
7.45162e-08
6.56434e-06
3.47218e-08
6.56152e-06
2.87878e-08
4.15428e-08
6.56079e-06
6.88455e-06
2.53428e-08
6.86969e-06
-2.88419e-07
6.89479e-06
3.19437e-07
6.88263e-06
1.10413e-07
6.91708e-06
1.82394e-07
6.88481e-06
-1.36383e-07
6.87733e-06
-1.62459e-07
6.85677e-06
-1.47863e-07
6.83497e-06
-1.17799e-07
6.85854e-06
2.01904e-07
6.86345e-06
2.47438e-07
6.87403e-06
1.99054e-07
6.89488e-06
2.62297e-07
6.8929e-06
1.98649e-07
6.88965e-06
1.01912e-07
6.89302e-06
9.43889e-08
6.88755e-06
7.99858e-08
6.87892e-06
4.33533e-08
6.87564e-06
3.20714e-08
4.25473e-08
6.87463e-06
7.21458e-06
2.99038e-08
7.19833e-06
-2.72169e-07
7.22449e-06
2.93274e-07
7.21261e-06
1.22288e-07
7.24371e-06
1.51292e-07
7.21639e-06
-1.09054e-07
7.20481e-06
-1.50883e-07
7.18716e-06
-1.30212e-07
7.16623e-06
-9.68744e-08
7.18707e-06
1.81071e-07
7.19415e-06
2.40352e-07
7.20233e-06
1.9088e-07
7.22207e-06
2.42556e-07
7.22222e-06
1.98491e-07
7.2178e-06
1.06341e-07
7.22051e-06
9.16754e-08
7.21694e-06
8.35518e-08
7.20869e-06
5.16048e-08
7.20504e-06
3.57252e-08
4.37905e-08
7.2038e-06
7.56044e-06
3.36851e-08
7.54271e-06
-2.54431e-07
7.56984e-06
2.66137e-07
7.55851e-06
1.33619e-07
7.58586e-06
1.23949e-07
7.56364e-06
-8.68333e-08
7.54875e-06
-1.35995e-07
7.53295e-06
-1.14417e-07
7.51349e-06
-7.74094e-08
7.53143e-06
1.63132e-07
7.54037e-06
2.31411e-07
7.54675e-06
1.845e-07
7.56475e-06
2.2455e-07
7.567e-06
1.96241e-07
7.56203e-06
1.1132e-07
7.56379e-06
8.99075e-08
7.56192e-06
8.5428e-08
7.55435e-06
5.91742e-08
7.55035e-06
3.97253e-08
4.50792e-08
7.54906e-06
7.92289e-06
3.66088e-08
7.90351e-06
-2.35049e-07
7.9315e-06
2.38142e-07
7.92108e-06
1.44041e-07
7.94429e-06
1.00738e-07
7.92707e-06
-6.96105e-08
7.90984e-06
-1.18768e-07
7.89502e-06
-9.95973e-08
7.87727e-06
-5.96655e-08
7.89247e-06
1.47934e-07
7.90277e-06
2.2111e-07
7.90792e-06
1.79358e-07
7.92376e-06
2.08707e-07
7.92783e-06
1.92172e-07
7.92297e-06
1.16177e-07
7.92366e-06
8.92197e-08
7.92318e-06
8.59069e-08
7.91661e-06
6.57458e-08
7.91225e-06
4.40849e-08
4.62731e-08
7.91105e-06
8.30266e-06
3.86341e-08
8.28151e-06
-2.13902e-07
8.31008e-06
2.09576e-07
8.30117e-06
1.52942e-07
8.31986e-06
8.20492e-08
8.30714e-06
-5.68836e-08
8.28878e-06
-1.0041e-07
8.27426e-06
-8.50781e-08
8.25825e-06
-4.36561e-08
8.27092e-06
1.3526e-07
8.28201e-06
2.1003e-07
8.28637e-06
1.74996e-07
8.29998e-06
1.95098e-07
8.30532e-06
1.8683e-07
8.30122e-06
1.20277e-07
8.30091e-06
8.95272e-08
8.30146e-06
8.5359e-08
8.29623e-06
7.09711e-08
8.29148e-06
4.88433e-08
4.7329e-08
8.29042e-06
8.70053e-06
3.97695e-08
8.6778e-06
-1.91173e-07
8.70627e-06
1.81108e-07
8.69973e-06
1.59473e-07
8.71345e-06
6.83363e-08
8.70447e-06
-4.79043e-08
8.68622e-06
-8.21613e-08
8.6716e-06
-7.04642e-08
8.65708e-06
-2.91338e-08
8.66744e-06
1.24905e-07
8.67864e-06
1.9883e-07
8.68261e-06
1.71026e-07
8.69419e-06
1.83515e-07
8.70037e-06
1.80652e-07
8.69732e-06
1.23321e-07
8.69641e-06
9.04424e-08
8.6975e-06
8.42669e-08
8.69386e-06
7.46066e-08
8.68908e-06
5.36285e-08
4.86425e-08
8.68777e-06
9.1173e-06
4.00849e-08
9.09357e-06
-1.67444e-07
9.12091e-06
1.53772e-07
9.11764e-06
1.62742e-07
9.12608e-06
5.99006e-08
9.11977e-06
-4.15997e-08
9.10276e-06
-6.51482e-08
9.08786e-06
-5.55647e-08
9.07441e-06
-1.5689e-08
9.08251e-06
1.16813e-07
9.09332e-06
1.88018e-07
9.09726e-06
1.67088e-07
9.10729e-06
1.73477e-07
9.1141e-06
1.73845e-07
9.11219e-06
1.25227e-07
9.11096e-06
9.16804e-08
9.11224e-06
8.29878e-08
9.11026e-06
7.65819e-08
9.10586e-06
5.80275e-08
5.04247e-08
9.10408e-06
9.55383e-06
3.97108e-08
9.52991e-06
-1.43524e-07
9.555e-06
1.28686e-07
9.55573e-06
1.62011e-07
9.55923e-06
5.6405e-08
9.55389e-06
-3.62606e-08
9.53876e-06
-5.00227e-08
9.52386e-06
-4.06626e-08
9.51099e-06
-2.81712e-09
9.517e-06
1.10804e-07
9.5273e-06
1.77718e-07
9.53153e-06
1.62852e-07
9.54057e-06
1.64445e-07
9.54769e-06
1.66719e-07
9.54689e-06
1.26029e-07
9.54549e-06
9.30777e-08
9.54682e-06
8.16597e-08
9.54609e-06
7.73078e-08
9.54263e-06
6.14887e-08
5.26011e-08
9.54046e-06
1.0011e-05
3.88196e-08
9.98774e-06
-1.2024e-07
1.00097e-05
1.06767e-07
1.00146e-05
1.5712e-07
1.00141e-05
5.68796e-08
1.00079e-05
-3.00963e-08
9.99466e-06
-3.6772e-08
9.98044e-06
-2.6437e-08
9.96816e-06
9.46489e-09
9.97235e-06
1.06614e-07
9.9821e-06
1.67961e-07
9.98683e-06
1.58126e-07
9.99513e-06
1.56146e-07
1.00024e-05
1.59469e-07
1.00025e-05
1.25877e-07
1.00011e-05
9.44993e-08
1.00023e-05
8.05059e-08
1.00025e-05
7.70603e-08
1.00001e-05
6.38949e-08
5.48147e-08
9.99789e-06
1.04898e-05
3.76184e-08
1.04679e-05
-9.83234e-08
1.04861e-05
8.85508e-08
1.04946e-05
1.48708e-07
1.04917e-05
5.96857e-08
1.04836e-05
-2.19281e-08
1.04717e-05
-2.49297e-08
1.04587e-05
-1.34295e-08
1.04474e-05
2.07653e-08
1.04502e-05
1.03837e-07
1.04591e-05
1.59034e-07
1.04642e-05
1.53082e-07
1.04719e-05
1.48416e-07
1.04792e-05
1.52164e-07
1.04802e-05
1.24917e-07
1.04789e-05
9.58168e-08
1.04798e-05
7.95959e-08
1.04806e-05
7.6249e-08
1.04792e-05
6.52335e-08
5.6762e-08
1.04773e-05
1.09913e-05
3.63242e-08
1.09713e-05
-7.83388e-08
1.09856e-05
7.4327e-08
1.09964e-05
1.37826e-07
1.09934e-05
6.27295e-08
1.09833e-05
-1.18065e-08
1.09718e-05
-1.34548e-08
1.09599e-05
-1.55638e-09
1.09499e-05
3.08136e-08
1.09516e-05
1.02066e-07
1.09596e-05
1.51053e-07
1.09647e-05
1.47984e-07
1.09719e-05
1.41262e-07
1.09791e-05
1.44899e-07
1.09809e-05
1.23151e-07
1.09798e-05
9.69108e-08
1.09804e-05
7.90249e-08
1.09816e-05
7.50716e-08
1.0981e-05
6.57517e-08
5.81798e-08
1.09796e-05
1.15166e-05
3.51272e-08
1.14989e-05
-6.06468e-08
1.15093e-05
6.38938e-08
1.15213e-05
1.25849e-07
1.15196e-05
6.44419e-08
1.15081e-05
-3.68724e-10
1.14964e-05
-1.68804e-09
1.14852e-05
9.59506e-09
1.14765e-05
3.95703e-08
1.14777e-05
1.00866e-07
1.14847e-05
1.44049e-07
1.14896e-05
1.43083e-07
1.14961e-05
1.34768e-07
1.15032e-05
1.37711e-07
1.15058e-05
1.20609e-07
1.1505e-05
9.76594e-08
1.15053e-05
7.87534e-08
1.15066e-05
7.37362e-08
1.15068e-05
6.56184e-08
5.90651e-08
1.15059e-05
1.20668e-05
3.41765e-08
1.20516e-05
-4.54404e-08
1.20588e-05
5.66825e-08
1.20705e-05
1.14091e-07
1.20709e-05
6.41204e-08
1.20593e-05
1.12257e-08
1.20467e-05
1.08759e-08
1.20358e-05
2.04848e-08
1.20283e-05
4.70841e-08
1.20292e-05
9.99376e-08
1.20354e-05
1.37913e-07
1.20398e-05
1.38606e-07
1.20456e-05
1.28983e-07
1.20525e-05
1.30803e-07
1.20559e-05
1.17241e-07
1.20556e-05
9.79379e-08
1.20557e-05
7.86736e-08
1.2057e-05
7.24487e-08
1.20577e-05
6.49194e-08
5.94798e-08
1.20573e-05
1.26432e-05
3.3556e-08
1.26305e-05
-3.27697e-08
1.26352e-05
5.19814e-08
1.26459e-05
1.03422e-07
1.2648e-05
6.19959e-08
1.26377e-05
2.15642e-08
1.26241e-05
2.45136e-08
1.2613e-05
3.15611e-08
1.26065e-05
5.36092e-08
1.26074e-05
9.89647e-08
1.26129e-05
1.32455e-07
1.26169e-05
1.3462e-07
1.26219e-05
1.23997e-07
1.26283e-05
1.24383e-07
1.26323e-05
1.13227e-07
1.26328e-05
9.74702e-08
1.26328e-05
7.86681e-08
1.26338e-05
7.13683e-08
1.26351e-05
6.37096e-08
5.9522e-08
1.2635e-05
1.32472e-05
3.3265e-08
1.32369e-05
-2.24244e-08
1.324e-05
4.88281e-08
1.3249e-05
9.4493e-08
1.32522e-05
5.88019e-08
1.32439e-05
2.97919e-08
1.32298e-05
3.85981e-08
1.32179e-05
4.34764e-08
1.32121e-05
5.94632e-08
1.32133e-05
9.77328e-08
1.32184e-05
1.27384e-07
1.3222e-05
1.31034e-07
1.3226e-05
1.19912e-07
1.32319e-05
1.18522e-07
1.32363e-05
1.08869e-07
1.32376e-05
9.61735e-08
1.32378e-05
7.84279e-08
1.32385e-05
7.06222e-08
1.32401e-05
6.21737e-08
5.90507e-08
1.32406e-05
1.38802e-05
3.32174e-08
1.38719e-05
-1.41123e-08
1.38744e-05
4.63071e-08
1.3881e-05
8.78655e-08
1.38843e-05
5.55147e-08
1.38786e-05
3.55111e-08
1.3865e-05
5.21855e-08
1.38521e-05
5.63796e-08
1.38464e-05
6.52158e-08
1.3848e-05
9.61477e-08
1.3853e-05
1.22352e-07
1.38564e-05
1.27654e-07
1.38597e-05
1.16544e-07
1.38647e-05
1.13541e-07
1.38692e-05
1.044e-07
1.38712e-05
9.41489e-08
1.38719e-05
7.7733e-08
1.38726e-05
6.99749e-08
1.3874e-05
6.06826e-08
5.79204e-08
1.38752e-05
1.45436e-05
3.3288e-08
1.45366e-05
-7.14214e-09
1.45394e-05
4.3528e-08
1.45438e-05
8.35022e-08
1.45458e-05
5.34856e-08
1.45424e-05
3.88859e-08
1.45304e-05
6.42081e-08
1.4517e-05
6.97319e-08
1.45109e-05
7.13692e-08
1.45126e-05
9.44731e-08
1.45179e-05
1.17041e-07
1.45213e-05
1.24202e-07
1.45242e-05
1.13663e-07
1.45283e-05
1.09454e-07
1.45327e-05
1.00001e-07
1.45351e-05
9.17213e-08
1.45364e-05
7.64655e-08
1.45372e-05
6.91427e-08
1.45385e-05
5.94248e-08
5.62784e-08
1.45401e-05
1.52388e-05
3.33443e-08
1.52328e-05
-1.07139e-09
1.52363e-05
3.99553e-08
1.5238e-05
8.18222e-08
1.52375e-05
5.39515e-08
1.52357e-05
4.07543e-08
1.52267e-05
7.3188e-08
1.52141e-05
8.23214e-08
1.52074e-05
7.80727e-08
1.52086e-05
9.32276e-08
1.52142e-05
1.11471e-07
1.52182e-05
1.20234e-07
1.52208e-05
1.1104e-07
1.52242e-05
1.06086e-07
1.52282e-05
9.59781e-08
1.52309e-05
8.90044e-08
1.52326e-05
7.4774e-08
1.52339e-05
6.78259e-08
1.5235e-05
5.83848e-08
5.44264e-08
1.52368e-05
1.59675e-05
3.31763e-08
1.5963e-05
3.41857e-09
1.59651e-05
3.7882e-08
1.5964e-05
8.28643e-08
1.59609e-05
5.71126e-08
1.59596e-05
4.204e-08
1.59552e-05
7.75647e-08
1.59447e-05
9.28076e-08
1.59376e-05
8.5225e-08
1.5938e-05
9.28517e-08
1.59435e-05
1.0596e-07
1.59481e-05
1.1555e-07
1.5951e-05
1.08159e-07
1.59538e-05
1.03282e-07
1.59574e-05
9.24254e-08
1.59602e-05
8.61553e-08
1.59621e-05
7.28876e-08
1.59639e-05
6.60753e-08
1.59652e-05
5.71066e-08
5.27666e-08
1.59668e-05
1.67307e-05
3.30955e-08
1.67202e-05
1.38727e-08
1.67227e-05
3.54058e-08
1.67241e-05
8.14309e-08
1.67193e-05
6.19327e-08
1.67178e-05
4.35412e-08
1.67178e-05
7.75847e-08
1.67104e-05
1.00175e-07
1.67031e-05
9.25134e-08
1.67024e-05
9.35945e-08
1.67074e-05
1.00941e-07
1.67126e-05
1.10397e-07
1.67161e-05
1.04606e-07
1.67188e-05
1.00587e-07
1.67218e-05
8.94055e-08
1.67247e-05
8.3289e-08
1.67267e-05
7.08451e-08
1.67287e-05
6.41006e-08
1.67304e-05
5.53888e-08
5.12663e-08
1.67319e-05
1.75307e-05
3.27505e-08
1.75227e-05
2.19022e-08
1.7522e-05
3.6064e-08
1.7523e-05
8.04849e-08
1.75169e-05
6.80148e-08
1.75135e-05
4.69358e-08
1.75162e-05
7.48559e-08
1.75124e-05
1.03975e-07
1.75058e-05
9.91148e-08
1.75038e-05
9.55679e-08
1.75079e-05
9.68669e-08
1.75133e-05
1.05048e-07
1.75175e-05
1.0039e-07
1.75205e-05
9.75341e-08
1.75233e-05
8.6632e-08
1.7526e-05
8.06042e-08
1.75282e-05
6.86442e-08
1.75302e-05
6.20902e-08
1.75323e-05
5.32966e-08
4.96429e-08
1.75339e-05
1.83687e-05
3.24156e-08
1.836e-05
3.05824e-08
1.83588e-05
3.72626e-08
1.83608e-05
7.85344e-08
1.83549e-05
7.38543e-08
1.83491e-05
5.27729e-08
1.83523e-05
7.16734e-08
1.8352e-05
1.0419e-07
1.83471e-05
1.04084e-07
1.83442e-05
9.84742e-08
1.8347e-05
9.40419e-08
1.8352e-05
9.99933e-08
1.83568e-05
9.56453e-08
1.83604e-05
9.3958e-08
1.83633e-05
8.36716e-08
1.83659e-05
7.80179e-08
1.83682e-05
6.63761e-08
1.83702e-05
6.00748e-08
1.83724e-05
5.10761e-08
4.76691e-08
1.83744e-05
1.92468e-05
3.20146e-08
1.9239e-05
3.83893e-08
1.92365e-05
3.97805e-08
1.92387e-05
7.6331e-08
1.92341e-05
7.83945e-08
1.92265e-05
6.03651e-08
1.92283e-05
6.99123e-08
1.92309e-05