/*--------------------------------*- C++ -*----------------------------------*\
| =========                 |                                                 |
| \\      /  F ield         | OpenFOAM: The Open Source CFD Toolbox           |
|  \\    /   O peration     | Version:  2506                                  |
|   \\  /    A nd           | Website:  www.openfoam.com                      |
|    \\/     M anipulation  |                                                 |
\*---------------------------------------------------------------------------*/
FoamFile
{
    version     2.0;
    format      ascii;
    arch        "LSB;label=32;scalar=64";
    class       volVectorField;
    location    "6.45";
    object      U;
}
// * * * * * * * * * * * * * * * * * * * * * * * * * * * * * * * * * * * * * //

dimensions      [0 1 -1 0 0 0 0];

internalField   nonuniform List<vector> 
9600
(
(0.972326 -0.0023208 0)
(1.00527 -0.00568105 0)
(0.983649 0.00971332 0)
(1.00187 1.84388e-05 0)
(0.962204 0.0156819 0)
(0.99438 -0.0248951 0)
(0.924928 0.0109962 0)
(1.10832 -0.0346754 0)
(0.876978 0.00452646 0)
(1.13875 0.0176477 0)
(0.933053 0.0121199 0)
(1.06966 0.0244273 0)
(0.975229 0.0099237 0)
(1.00975 0.0100752 0)
(0.955786 0.00838875 0)
(0.996161 -0.0146603 0)
(0.925564 0.00430547 0)
(1.01456 -0.0351081 0)
(0.855491 -0.00233867 0)
(1.03063 -0.0402876 0)
(0.975768 -0.0021925 0)
(1.00437 -0.00572327 0)
(0.985446 0.00964252 0)
(1.00074 0.000351438 0)
(0.965271 0.0156552 0)
(0.988632 -0.0242979 0)
(0.929179 0.00954382 0)
(1.0913 -0.033687 0)
(0.883272 0.0041051 0)
(1.12313 0.0172168 0)
(0.954032 0.0128361 0)
(1.04741 0.0238424 0)
(0.998116 0.0111037 0)
(0.989959 0.0105255 0)
(0.981111 0.00867645 0)
(0.971644 -0.0139294 0)
(0.973755 0.00352793 0)
(0.96911 -0.0334079 0)
(0.948208 -0.00222611 0)
(0.944531 -0.0409345 0)
(0.981495 -0.00207161 0)
(1.00229 -0.00577612 0)
(0.989297 0.00962919 0)
(0.999714 0.000579926 0)
(0.970108 0.0156686 0)
(0.984891 -0.0238544 0)
(0.93666 0.00818914 0)
(1.07252 -0.033048 0)
(0.902781 0.00337059 0)
(1.09005 0.0163935 0)
(0.984213 0.0138125 0)
(1.01979 0.0232723 0)
(1.00583 0.0120304 0)
(0.986531 0.0108655 0)
(0.981505 0.00885667 0)
(0.983718 -0.0136128 0)
(0.975298 0.0029796 0)
(0.986811 -0.0314737 0)
(0.961479 -0.00427782 0)
(0.965417 -0.0333627 0)
(0.988116 -0.001981 0)
(0.999535 -0.00581462 0)
(0.994063 0.00961642 0)
(0.999355 0.000796131 0)
(0.975969 0.0157239 0)
(0.98296 -0.0234299 0)
(0.946248 0.00715295 0)
(1.05226 -0.0325813 0)
(0.929417 0.00293206 0)
(1.05488 0.0153715 0)
(1.00677 0.0146763 0)
(1.00376 0.0231012 0)
(1.0052 0.0124735 0)
(0.988653 0.0111734 0)
(0.98796 0.00895211 0)
(0.98901 -0.0135697 0)
(0.984788 0.00299249 0)
(0.987449 -0.0312801 0)
(0.969845 -0.00342457 0)
(0.964992 -0.0314408 0)
(0.994247 -0.00191193 0)
(0.997019 -0.00583925 0)
(0.99817 0.00957067 0)
(0.999282 0.00101463 0)
(0.982296 0.0157964 0)
(0.98338 -0.0230089 0)
(0.956319 0.00632031 0)
(1.03352 -0.0323686 0)
(0.95345 0.00281564 0)
(1.02996 0.0144598 0)
(1.01762 0.0152817 0)
(1.00039 0.0232369 0)
(1.00639 0.0127684 0)
(0.993797 0.0113737 0)
(0.996549 0.00889741 0)
(0.996531 -0.0131783 0)
(0.991725 0.00242017 0)
(0.99368 -0.0297404 0)
(0.974957 -0.00382854 0)
(0.970441 -0.0286543 0)
(0.998967 -0.00186059 0)
(0.995167 -0.00585167 0)
(1.00069 0.00950475 0)
(0.998898 0.00121805 0)
(0.988861 0.0158551 0)
(0.985726 -0.022593 0)
(0.965992 0.00565644 0)
(1.01756 -0.0322681 0)
(0.969507 0.00277715 0)
(1.01677 0.013741 0)
(1.021 0.0155829 0)
(1.00346 0.0234407 0)
(1.01041 0.0129956 0)
(1.00052 0.0114113 0)
(1.00422 0.00887071 0)
(1.00349 -0.0129141 0)
(0.997614 0.00213724 0)
(0.997949 -0.0284005 0)
(0.979466 -0.00421911 0)
(0.973719 -0.0259364 0)
(1.00204 -0.00182212 0)
(0.993769 -0.00585011 0)
(1.00168 0.00943083 0)
(0.99805 0.00138291 0)
(0.995467 0.0158767 0)
(0.98912 -0.0221812 0)
(0.975094 0.00518147 0)
(1.00471 -0.0321799 0)
(0.977289 0.00263274 0)
(1.01087 0.0131379 0)
(1.02128 0.015639 0)
(1.00769 0.0235757 0)
(1.01473 0.0131552 0)
(1.00665 0.0113994 0)
(1.01023 0.00881337 0)
(1.00898 -0.0125245 0)
(1.00244 0.00183186 0)
(1.00174 -0.0268613 0)
(0.983607 -0.00461465 0)
(0.977104 -0.023074 0)
(1.00375 -0.00178843 0)
(0.992435 -0.00583235 0)
(1.00175 0.00935166 0)
(0.997087 0.00149302 0)
(1.00172 0.0158467 0)
(0.992633 -0.021773 0)
(0.983542 0.00488913 0)
(0.994968 -0.0320136 0)
(0.979033 0.00234963 0)
(1.00773 0.0125828 0)
(1.0201 0.0155397 0)
(1.01037 0.0236241 0)
(1.01752 0.0132878 0)
(1.01094 0.0113517 0)
(1.01455 0.00876945 0)
(1.01305 -0.0120603 0)
(1.00634 0.00152971 0)
(1.00485 -0.0252522 0)
(0.987461 -0.00500205 0)
(0.980527 -0.0202166 0)
(1.00454 -0.00174974 0)
(0.991033 -0.00580309 0)
(1.00151 0.00926206 0)
(0.996461 0.00154359 0)
(1.00713 0.0157612 0)
(0.995615 -0.0213674 0)
(0.990968 0.00474344 0)
(0.988359 -0.0317015 0)
(0.977401 0.00195368 0)
(1.00467 0.0120354 0)
(1.01738 0.0153385 0)
(1.01059 0.0236067 0)
(1.01831 0.0133857 0)
(1.01339 0.0112516 0)
(1.01744 0.00872224 0)
(1.01597 -0.0115476 0)
(1.00933 0.00120008 0)
(1.0073 -0.0235547 0)
(0.990924 -0.00537139 0)
(0.983914 -0.0174485 0)
(1.00479 -0.0016994 0)
(0.989737 -0.00576804 0)
(1.00126 0.00915407 0)
(0.996387 0.00154077 0)
(1.01137 0.0156272 0)
(0.997792 -0.0209667 0)
(0.996908 0.00469849 0)
(0.984791 -0.0312126 0)
(0.974525 0.00148606 0)
(1.00078 0.0114924 0)
(1.01296 0.0150639 0)
(1.00864 0.0235216 0)
(1.01764 0.013415 0)
(1.01461 0.0110932 0)
(1.01937 0.00863003 0)
(1.01795 -0.0110043 0)
(1.01143 0.000856716 0)
(1.00894 -0.0217791 0)
(0.993828 -0.00575373 0)
(0.98691 -0.0148569 0)
(1.00475 -0.00163532 0)
(0.98882 -0.00573162 0)
(1.00102 0.00902339 0)
(0.996781 0.00149488 0)
(1.0144 0.0154613 0)
(0.999212 -0.0205724 0)
(1.00113 0.00470785 0)
(0.983811 -0.0305575 0)
(0.971859 0.00100058 0)
(0.996432 0.0109911 0)
(1.00757 0.0147276 0)
(1.00577 0.0233461 0)
(1.01656 0.0133537 0)
(1.01534 0.0108725 0)
(1.02071 0.00847574 0)
(1.01916 -0.0104067 0)
(1.01266 0.000498234 0)
(1.00972 -0.0199775 0)
(0.996019 -0.00613954 0)
(0.989246 -0.0124816 0)
(1.0046 -0.00155979 0)
(0.988467 -0.00569459 0)
(1.00072 0.00887133 0)
(0.997397 0.00141642 0)
(1.01631 0.0152764 0)
(1.00012 -0.0201751 0)
(1.00374 0.0047277 0)
(0.984613 -0.0297745 0)
(0.970298 0.000536524 0)
(0.992742 0.0105697 0)
(1.00268 0.0143207 0)
(1.00348 0.0230654 0)
(1.01608 0.0131929 0)
(1.01609 0.0105976 0)
(1.02157 0.00828611 0)
(1.01963 -0.00973368 0)
(1.01302 0.000129999 0)
(1.00966 -0.0181974 0)
(0.99739 -0.00648351 0)
(0.990792 -0.0103429 0)
(1.00443 -0.00147786 0)
(0.98871 -0.00565444 0)
(1.00026 0.00870162 0)
(0.997984 0.00131587 0)
(1.01718 0.0150744 0)
(1.00083 -0.0197614 0)
(1.00501 0.00472406 0)
(0.986346 -0.0289003 0)
(0.970198 9.92546e-05 0)
(0.990647 0.0102342 0)
(0.999692 0.0138348 0)
(1.00264 0.0226806 0)
(1.01646 0.0129497 0)
(1.01686 0.0103071 0)
(1.02175 0.00809909 0)
(1.01933 -0.00898855 0)
(1.01258 -0.000189974 0)
(1.00893 -0.0164648 0)
(0.998001 -0.00675114 0)
(0.991603 -0.0084413 0)
(1.00429 -0.00139533 0)
(0.989444 -0.00560809 0)
(0.999581 0.00852179 0)
(0.998389 0.0012011 0)
(1.01708 0.0148546 0)
(1.00155 -0.0193232 0)
(1.00527 0.00468022 0)
(0.988421 -0.0279624 0)
(0.971352 -0.0003257 0)
(0.990145 0.00995967 0)
(0.998918 0.0132765 0)
(1.00299 0.0222133 0)
(1.01709 0.0126699 0)
(1.01724 0.01004 0)
(1.02103 0.00794284 0)
(1.01827 -0.00819593 0)
(1.01154 -0.000455825 0)
(1.00778 -0.0147961 0)
(0.998074 -0.00693976 0)
(0.99188 -0.00678577 0)
(1.00419 -0.00131739 0)
(0.990472 -0.0055523 0)
(0.998743 0.0083409 0)
(0.998577 0.00108102 0)
(1.01614 0.0146121 0)
(1.00235 -0.0188559 0)
(1.00478 0.00459055 0)
(0.990564 -0.0269814 0)
(0.973165 -0.000746576 0)
(0.990321 0.00971737 0)
(0.999454 0.0126652 0)
(1.00345 0.0217098 0)
(1.01705 0.0123983 0)
(1.0168 0.00981811 0)
(1.01943 0.00782566 0)
(1.01661 -0.00739175 0)
(1.01019 -0.000665889 0)
(1.0065 -0.0132135 0)
(0.997907 -0.00704683 0)
(0.991893 -0.00538304 0)
(1.0041 -0.00124723 0)
(0.991572 -0.00548454 0)
(0.997854 0.00816489 0)
(0.998603 0.000964753 0)
(1.01468 0.0143409 0)
(1.00318 -0.0183609 0)
(1.00382 0.00445284 0)
(0.992651 -0.0259685 0)
(0.975011 -0.0011627 0)
(0.990137 0.00950021 0)
(0.999968 0.012025 0)
(1.00308 0.0212175 0)
(1.0158 0.0121536 0)
(1.01544 0.00963809 0)
(1.01724 0.00774228 0)
(1.01468 -0.00660907 0)
(1.00881 -0.000820297 0)
(1.00534 -0.0117377 0)
(0.997744 -0.00706563 0)
(0.991866 -0.00422016 0)
(1.004 -0.00118543 0)
(0.992565 -0.00540407 0)
(0.997047 0.0079974 0)
(0.998554 0.000857927 0)
(1.01308 0.0140372 0)
(1.00389 -0.0178408 0)
(1.0027 0.00426864 0)
(0.994544 -0.0249365 0)
(0.976534 -0.00155472 0)
(0.989167 0.0093264 0)
(0.999661 0.0113648 0)
(1.00165 0.0207573 0)
(1.01355 0.0119364 0)
(1.0135 0.00945313 0)
(1.01492 0.00769882 0)
(1.01281 -0.0058763 0)
(1.0076 -0.000917278 0)
(1.00438 -0.0103646 0)
(0.997717 -0.00701332 0)
(0.991921 -0.0032606 0)
(1.00388 -0.0011301 0)
(0.993365 -0.00531306 0)
(0.996415 0.00783793 0)
(0.998498 0.00076266 0)
(1.01162 0.013702 0)
(1.00442 -0.0172968 0)
(1.00166 0.00403765 0)
(0.996095 -0.0238916 0)
(0.9777 -0.00190333 0)
(0.98768 0.00921585 0)
(0.998583 0.0106911 0)
(0.999585 0.0203209 0)
(1.01092 0.0117348 0)
(1.01145 0.00923754 0)
(1.01282 0.0076528 0)
(1.01123 -0.00522664 0)
(1.00665 -0.000987018 0)
(1.00364 -0.00907328 0)
(0.997847 -0.00691367 0)
(0.992087 -0.00247866 0)
(1.00374 -0.00107873 0)
(0.993968 -0.00521541 0)
(0.995987 0.00768495 0)
(0.998472 0.000677303 0)
(1.01044 0.0133391 0)
(1.00472 -0.0167282 0)
(1.00083 0.00376154 0)
(0.997219 -0.0228276 0)
(0.97864 -0.00221173 0)
(0.9862 0.00917792 0)
(0.997247 0.0100141 0)
(0.997515 0.0198839 0)
(1.00851 0.0115465 0)
(1.00966 0.00895555 0)
(1.01109 0.00761772 0)
(1.00998 -0.00464844 0)
(1.00596 -0.00104983 0)
(1.00306 -0.0078424 0)
(0.998092 -0.00678238 0)
(0.992352 -0.00187879 0)
(1.00358 -0.00102902 0)
(0.994414 -0.00511439 0)
(0.995736 0.00753677 0)
(0.998492 0.000601491 0)
(1.00952 0.0129508 0)
(1.00484 -0.0161338 0)
(1.00023 0.00344617 0)
(0.99793 -0.0217366 0)
(0.979493 -0.00248643 0)
(0.985094 0.00920399 0)
(0.996118 0.00934422 0)
(0.995848 0.0194231 0)
(1.0066 0.0113804 0)
(1.00829 0.00859059 0)
(1.00973 0.00759858 0)
(1.00902 -0.00412124 0)
(1.00547 -0.00111046 0)
(1.00258 -0.00666001 0)
(0.99839 -0.00660878 0)
(0.992699 -0.00145425 0)
(1.00341 -0.000978823 0)
(0.994748 -0.00501266 0)
(0.995619 0.00739165 0)
(0.998553 0.000533332 0)
(1.0088 0.0125397 0)
(1.00483 -0.0155152 0)
(0.999803 0.00309364 0)
(0.998312 -0.0206144 0)
(0.980325 -0.00274339 0)
(0.984458 0.00927893 0)
(0.995395 0.00868975 0)
(0.994705 0.0189233 0)
(1.00519 0.0112352 0)
(1.00733 0.00816859 0)
(1.00866 0.00758372 0)
(1.00826 -0.00360817 0)
(1.00514 -0.00117995 0)
(1.00216 -0.00552133 0)
(0.998691 -0.00635942 0)
(0.993117 -0.00118168 0)
(1.00324 -0.000926635 0)
(0.995005 -0.00491337 0)
(0.995594 0.00725015 0)
(0.998648 0.000470027 0)
(1.00822 0.0121115 0)
(1.00476 -0.0148723 0)
(0.999482 0.00270825 0)
(0.998467 -0.0194591 0)
(0.981153 -0.00300061 0)
(0.98422 0.00938434 0)
(0.995061 0.0080582 0)
(0.994027 0.0183687 0)
(1.00417 0.0111297 0)
(1.00668 0.00768868 0)
(1.0078 0.00757803 0)
(1.00763 -0.00307714 0)
(1.00491 -0.00127268 0)
(1.00179 -0.00441665 0)
(0.998955 -0.00600714 0)
(0.993599 -0.00105913 0)
(1.00308 -0.000871396 0)
(0.995203 -0.0048183 0)
(0.995629 0.0071098 0)
(0.998763 0.000414494 0)
(1.00771 0.0116676 0)
(1.00465 -0.0142014 0)
(0.999232 0.00229896 0)
(0.998481 -0.0182778 0)
(0.981977 -0.00325043 0)
(0.98426 0.00949735 0)
(0.995013 0.00746527 0)
(0.993698 0.0177357 0)
(1.00339 0.011082 0)
(1.00625 0.00716671 0)
(1.00707 0.00754328 0)
(1.00707 -0.00251658 0)
(1.00476 -0.00140617 0)
(1.00148 -0.00337161 0)
(0.999154 -0.00552723 0)
(0.99414 -0.00108204 0)
(1.00295 -0.000813054 0)
(0.995358 -0.00472649 0)
(0.995699 0.00696726 0)
(0.998882 0.000367482 0)
(1.00726 0.0112067 0)
(1.00454 -0.0135025 0)
(0.999038 0.0018659 0)
(0.998414 -0.0170682 0)
(0.982797 -0.00350988 0)
(0.984474 0.009608 0)
(0.995142 0.00692287 0)
(0.993614 0.0170324 0)
(1.00277 0.0110827 0)
(1.00597 0.00663238 0)
(1.00644 0.00747574 0)
(1.00655 -0.00188524 0)
(1.00465 -0.00156645 0)
(1.00124 -0.00244383 0)
(0.999274 -0.00490612 0)
(0.994733 -0.00121914 0)
(1.00285 -0.000750513 0)
(0.995482 -0.0046406 0)
(0.995786 0.00682378 0)
(0.998991 0.000329016 0)
(1.00684 0.010728 0)
(1.00442 -0.0127772 0)
(0.998896 0.00141183 0)
(0.998305 -0.0158374 0)
(0.98362 -0.00378209 0)
(0.98479 0.00970328 0)
(0.99536 0.00644317 0)
(0.993692 0.016251 0)
(1.00221 0.0111326 0)
(1.00579 0.00611361 0)
(1.00589 0.00733565 0)
(1.00605 -0.00120101 0)
(1.00456 -0.00172323 0)
(1.00109 -0.00167145 0)
(0.999316 -0.00415064 0)
(0.995358 -0.00140015 0)
(1.00278 -0.000683726 0)
(0.995591 -0.00456059 0)
(0.99587 0.00667929 0)
(0.999081 0.000300897 0)
(1.00644 0.0102293 0)
(1.0043 -0.0120263 0)
(0.998805 0.000948828 0)
(0.998176 -0.0146048 0)
(0.984455 -0.0040341 0)
(0.985161 0.00975756 0)
(0.995603 0.00604221 0)
(0.993879 0.0153802 0)
(1.00168 0.0112059 0)
(1.00565 0.00562964 0)
(1.0054 0.0071352 0)
(1.00557 -0.000462691 0)
(1.0045 -0.00183344 0)
(1.00103 -0.00106722 0)
(0.999298 -0.00328879 0)
(0.995986 -0.00153515 0)
(1.00273 -0.000614061 0)
(0.995699 -0.00448262 0)
(0.995941 0.00653152 0)
(0.999147 0.000283342 0)
(1.00606 0.00971222 0)
(1.00416 -0.0112518 0)
(0.998758 0.000479379 0)
(0.998037 -0.0133691 0)
(0.985307 -0.00426304 0)
(0.98556 0.00975495 0)
(0.995833 0.00573013 0)
(0.994138 0.0144377 0)
(1.00116 0.0112824 0)
(1.00553 0.00521099 0)
(1.005 0.00686007 0)
(1.00509 0.000319274 0)
(1.00445 -0.00185782 0)
(1.00107 -0.000644967 0)
(0.999244 -0.00237389 0)
(0.99658 -0.00156231 0)
(1.0027 -0.000541982 0)
(0.995818 -0.00440576 0)
(0.995991 0.00637886 0)
(0.999191 0.000281049 0)
(1.00568 0.00917181 0)
(1.00399 -0.0104531 0)
(0.998747 -4.57176e-07 0)
(0.997892 -0.0121409 0)
(0.986175 -0.00447564 0)
(0.985976 0.00968932 0)
(0.996031 0.00552026 0)
(0.99445 0.0134402 0)
(1.00065 0.0113546 0)
(1.00541 0.00487543 0)
(1.00467 0.00647891 0)
(1.00463 0.00109405 0)
(1.00439 -0.00177513 0)
(1.0012 -0.000401466 0)
(0.999189 -0.00147909 0)
(0.997108 -0.00143125 0)
(1.00267 -0.000467253 0)
(0.995957 -0.00432956 0)
(0.996024 0.00622018 0)
(0.999219 0.000292628 0)
(1.00533 0.00861291 0)
(1.00379 -0.00964025 0)
(0.99876 -0.00047423 0)
(0.997743 -0.0109394 0)
(0.987051 -0.00465379 0)
(0.986411 0.00954047 0)
(0.996194 0.00541068 0)
(0.994802 0.012408 0)
(1.00016 0.0113981 0)
(1.00525 0.00464673 0)
(1.00444 0.00602664 0)
(1.00419 0.00181985 0)
(1.00431 -0.00156398 0)
(1.00142 -0.000296831 0)
(0.999164 -0.000679762 0)
(0.997542 -0.00112124 0)
(1.00263 -0.000391273 0)
(0.996117 -0.00425259 0)
(0.996048 0.00605577 0)
(0.999238 0.000317156 0)
(1.005 0.00803932 0)
(1.00357 -0.0088191 0)
(0.998786 -0.000932585 0)
(0.997595 -0.00977185 0)
(0.987923 -0.0047649 0)
(0.98687 0.00930532 0)
(0.996322 0.00537784 0)
(0.995184 0.0113612 0)
(0.999704 0.0113846 0)
(1.00504 0.00453802 0)
(1.00429 0.00552412 0)
(1.00377 0.00245234 0)
(1.00419 -0.00121874 0)
(1.00168 -0.000280984 0)
(0.999195 -3.6494e-05 0)
(0.99787 -0.000645089 0)
(1.00258 -0.000315361 0)
(0.996296 -0.00417142 0)
(0.996075 0.00588093 0)
(0.999254 0.000363457 0)
(1.00469 0.00744171 0)
(1.00332 -0.00798815 0)
(0.998819 -0.0013711 0)
(0.997456 -0.00865413 0)
(0.988782 -0.00480655 0)
(0.987356 0.00897338 0)
(0.99642 0.00541694 0)
(0.995586 0.0103343 0)
(0.999299 0.0112726 0)
(1.00477 0.00453532 0)
(1.0042 0.00499835 0)
(1.00339 0.00299195 0)
(1.00403 -0.000746886 0)
(1.00196 -0.000292466 0)
(0.999301 0.000431589 0)
(0.998103 -6.95848e-05 0)
(1.00251 -0.000239707 0)
(0.996486 -0.00408378 0)
(0.996116 0.00569423 0)
(0.99927 0.000429034 0)
(1.00441 0.00683483 0)
(1.00305 -0.00716333 0)
(0.998854 -0.00177287 0)
(0.997332 -0.00760653 0)
(0.989616 -0.00477181 0)
(0.987875 0.00854891 0)
(0.996493 0.00551962 0)
(0.995991 0.0093537 0)
(0.998949 0.0110538 0)
(1.00444 0.00463707 0)
(1.00416 0.00450466 0)
(1.00305 0.00340727 0)
(1.00382 -0.000186665 0)
(1.00221 -0.000277499 0)
(0.999484 0.000745779 0)
(0.998264 0.000514013 0)
(1.00242 -0.00016453 0)
(0.996683 -0.00399195 0)
(0.996177 0.00549217 0)
(0.999289 0.00051416 0)
(1.00415 0.00622662 0)
(1.00277 -0.00635156 0)
(0.99889 -0.00213046 0)
(0.997231 -0.00664815 0)
(0.99042 -0.00464091 0)
(0.988427 0.00804872 0)
(0.996547 0.00565221 0)
(0.996387 0.00844946 0)
(0.998662 0.0107431 0)
(1.00405 0.00483157 0)
(1.00414 0.00405535 0)
(1.00277 0.00367506 0)
(1.00356 0.000414976 0)
(1.00243 -0.000195796 0)
(0.999735 0.0009275 0)
(0.998386 0.00105565 0)
(1.00232 -9.02804e-05 0)
(0.996881 -0.00389482 0)
(0.996262 0.0052733 0)
(0.999308 0.000620937 0)
(1.00391 0.00561408 0)
(1.0025 -0.00555976 0)
(0.998928 -0.00243316 0)
(0.997157 -0.00577598 0)
(0.99119 -0.00443047 0)
(0.989009 0.00748927 0)
(0.996586 0.00578953 0)
(0.996765 0.00764512 0)
(0.998441 0.0103372 0)
(1.00361 0.00506843 0)
(1.00412 0.00367909 0)
(1.00255 0.00381716 0)
(1.00326 0.00100564 0)
(1.00259 -2.27546e-05 0)
(1.00004 0.000994694 0)
(0.998511 0.00150181 0)
(1.00222 -1.89557e-05 0)
(0.997078 -0.00378597 0)
(0.99637 0.00503878 0)
(0.999326 0.000745358 0)
(1.00368 0.00500913 0)
(1.00222 -0.00480265 0)
(0.998968 -0.00266355 0)
(0.997113 -0.00500463 0)
(0.991923 -0.00414071 0)
(0.989618 0.00688841 0)
(0.996618 0.00590134 0)
(0.997117 0.00695281 0)
(0.998285 0.00984838 0)
(1.00314 0.00532063 0)
(1.00408 0.00341338 0)
(1.0024 0.00384281 0)
(1.00296 0.00155647 0)
(1.00268 0.000243443 0)
(1.00038 0.00100938 0)
(0.998682 0.00179772 0)
(1.00211 4.95042e-05 0)
(0.99727 -0.00366651 0)
(0.996499 0.00478742 0)
(0.999338 0.000887505 0)
(1.00348 0.00441454 0)
(1.00195 -0.00409175 0)
(0.999007 -0.0028184 0)
(0.9971 -0.00433453 0)
(0.992617 -0.00378832 0)
(0.990248 0.00626773 0)
(0.996652 0.00597535 0)
(0.997439 0.00636462 0)
(0.998198 0.00930152 0)
(1.00266 0.00556352 0)
(1.004 0.00325409 0)
(1.00231 0.00378063 0)
(1.00266 0.00205219 0)
(1.0027 0.000575938 0)
(1.00071 0.00105122 0)
(0.998913 0.0019621 0)
(1.002 0.000115431 0)
(0.99746 -0.0035385 0)
(0.996646 0.00452318 0)
(0.999342 0.00103738 0)
(1.00329 0.00383936 0)
(1.00169 -0.00343542 0)
(0.999046 -0.00289138 0)
(0.997115 -0.00375742 0)
(0.993271 -0.00339838 0)
(0.990893 0.00566494 0)
(0.996692 0.00599695 0)
(0.997729 0.00588057 0)
(0.998174 0.00871845 0)
(1.00218 0.00576933 0)
(1.00389 0.00318888 0)
(1.00229 0.00366937 0)
(1.00241 0.00246225 0)
(1.00266 0.000942112 0)
(1.00102 0.00113147 0)
(0.999195 0.00202992 0)
(1.00189 0.000175753 0)
(0.997645 -0.00339696 0)
(0.996809 0.00424094 0)
(0.999336 0.00119786 0)
(1.00312 0.00329674 0)
(1.00144 -0.00283883 0)
(0.999081 -0.00288287 0)
(0.997157 -0.00327699 0)
(0.993888 -0.0029636 0)
(0.991547 0.00509769 0)
(0.996746 0.00595085 0)
(0.997987 0.00549916 0)
(0.998212 0.00811913 0)
(1.00174 0.00591912 0)
(1.00374 0.0032072 0)
(1.0023 0.00354336 0)
(1.0022 0.002789 0)
(1.00258 0.00131108 0)
(1.0013 0.00125181 0)
(0.999518 0.00205461 0)
(1.00178 0.000231335 0)
(0.997825 -0.00324157 0)
(0.996986 0.00394896 0)
(0.999321 0.00136108 0)
(1.00296 0.00278899 0)
(1.0012 -0.00230936 0)
(0.999113 -0.00278582 0)
(0.997228 -0.00287292 0)
(0.994469 -0.00252559 0)
(0.9922 0.0045713 0)
(0.996818 0.00585686 0)
(0.998214 0.00519709 0)
(0.998299 0.0075267 0)
(1.00134 0.00599887 0)
(1.00356 0.00329977 0)
(1.00235 0.00341947 0)
(1.00204 0.00304122 0)
(1.00248 0.00167788 0)
(1.00153 0.00140836 0)
(0.999851 0.00209501 0)
(1.00168 0.000281405 0)
(0.997999 -0.00307169 0)
(0.997178 0.00364614 0)
(0.999298 0.0015171 0)
(1.00282 0.00232669 0)
(1.00099 -0.00185546 0)
(0.999139 -0.00261158 0)
(0.997319 -0.00253058 0)
(0.995015 -0.00210587 0)
(0.992849 0.00410351 0)
(0.996912 0.00572205 0)
(0.998412 0.00495767 0)
(0.99843 0.00696689 0)
(1.001 0.00601715 0)
(1.00334 0.00343661 0)
(1.00242 0.00331257 0)
(1.00193 0.00321649 0)
(1.00237 0.00203856 0)
(1.00172 0.00156914 0)
(1.00018 0.00216476 0)
(1.00158 0.000323979 0)
(0.998167 -0.00288845 0)
(0.997381 0.00332898 0)
(0.999267 0.00167012 0)
(1.00268 0.00191374 0)
(1.0008 -0.00148212 0)
(0.999159 -0.00238289 0)
(0.997431 -0.00223007 0)
(0.995531 -0.00170325 0)
(0.99349 0.00369423 0)
(0.99703 0.00553649 0)
(0.998586 0.00477978 0)
(0.998595 0.00644701 0)
(1.00071 0.00596787 0)
(1.00311 0.00359235 0)
(1.0025 0.00323891 0)
(1.00189 0.00331458 0)
(1.00224 0.0023764 0)
(1.00187 0.00173791 0)
(1.00049 0.00224523 0)
(1.00148 0.000357552 0)
(0.998326 -0.00268427 0)
(0.997597 0.00299571 0)
(0.999231 0.00181326 0)
(1.00256 0.00155703 0)
(1.00063 -0.00118961 0)
(0.999175 -0.00210939 0)
(0.997556 -0.00194737 0)
(0.996019 -0.00134672 0)
(0.994116 0.00333224 0)
(0.997177 0.00530361 0)
(0.998739 0.00464499 0)
(0.998782 0.00597639 0)
(1.00049 0.00585848 0)
(1.00287 0.00374988 0)
(1.00257 0.00319367 0)
(1.00191 0.00334945 0)
(1.00214 0.00268611 0)
(1.00198 0.0019354 0)
(1.00079 0.00231001 0)
(1.00139 0.000381997 0)
(0.998475 -0.00245961 0)
(0.997822 0.00265041 0)
(0.999195 0.00194073 0)
(1.00243 0.00126572 0)
(1.0005 -0.000970279 0)
(0.999191 -0.00181204 0)
(0.997691 -0.00167939 0)
(0.996481 -0.00101988 0)
(0.994725 0.003029 0)
(0.997352 0.00504602 0)
(0.998881 0.00453551 0)
(0.998983 0.00557366 0)
(1.00034 0.00571252 0)
(1.00263 0.0038969 0)
(1.00262 0.00318874 0)
(1.00198 0.00334317 0)
(1.00205 0.00294305 0)
(1.00205 0.00216116 0)
(1.00107 0.00235645 0)
(1.0013 0.000398186 0)
(0.998611 -0.00221886 0)
(0.998053 0.00230665 0)
(0.999159 0.0020442 0)
(1.0023 0.00104093 0)
(1.00038 -0.000812686 0)
(0.999208 -0.00150236 0)
(0.997831 -0.00141037 0)
(0.996918 -0.000714636 0)
(0.995315 0.00278235 0)
(0.997556 0.00477596 0)
(0.999017 0.00442201 0)
(0.999191 0.00523749 0)
(1.00024 0.00554227 0)
(1.0024 0.00401064 0)
(1.00266 0.00321172 0)
(1.00208 0.00331112 0)
(1.00201 0.00312059 0)
(1.00209 0.00239102 0)
(1.00132 0.00240665 0)
(1.00122 0.000403652 0)
(0.998732 -0.00195665 0)
(0.998288 0.00196905 0)
(0.999128 0.00210765 0)
(1.00217 0.000889552 0)
(1.0003 -0.000703678 0)
(0.999232 -0.00121008 0)
(0.997973 -0.0011317 0)
(0.997329 -0.000440977 0)
(0.99588 0.00258345 0)
(0.997781 0.00451225 0)
(0.999157 0.00430399 0)
(0.999406 0.00494474 0)
(1.0002 0.00535428 0)
(1.00219 0.00409103 0)
(1.00268 0.00324906 0)
(1.00222 0.00325684 0)
(1.00202 0.00323127 0)
(1.00211 0.00261064 0)
(1.00154 0.00248365 0)
(1.00114 0.000402332 0)
(0.998839 -0.0016912 0)
(0.998521 0.00165497 0)
(0.999105 0.00212139 0)
(1.00203 0.000810057 0)
(1.00023 -0.000617235 0)
(0.999266 -0.000952797 0)
(0.998117 -0.000859775 0)
(0.997715 -0.000177042 0)
(0.996423 0.00242822 0)
(0.998026 0.00426172 0)
(0.999299 0.0042016 0)
(0.999622 0.00468086 0)
(1.00021 0.00515312 0)
(1.002 0.00414352 0)
(1.00267 0.00330179 0)
(1.00237 0.00319619 0)
(1.00208 0.00328182 0)
(1.00212 0.00279467 0)
(1.00172 0.00259293 0)
(1.00107 0.000395204 0)
(0.99893 -0.00143105 0)
(0.998748 0.00137685 0)
(0.999092 0.00207818 0)
(1.00189 0.000793863 0)
(1.00018 -0.000527448 0)
(0.999312 -0.000727808 0)
(0.998264 -0.000596378 0)
(0.998077 7.76156e-05 0)
(0.996936 0.00232393 0)
(0.998286 0.00402836 0)
(0.999446 0.00408717 0)
(0.999834 0.00444398 0)
(1.00026 0.00493541 0)
(1.00185 0.00416237 0)
(1.00265 0.00335791 0)
(1.00251 0.00314491 0)
(1.00218 0.0032774 0)
(1.00216 0.00292489 0)
(1.00186 0.00272289 0)
(1.001 0.000382781 0)
(0.999007 -0.00118008 0)
(0.998964 0.00114022 0)
(0.999091 0.00198154 0)
(1.00175 0.000824551 0)
(1.00013 -0.000407817 0)
(0.999369 -0.000522349 0)
(0.998417 -0.00035809 0)
(0.998417 0.000315984 0)
(0.997421 0.00226008 0)
(0.998552 0.003817 0)
(0.999595 0.00395983 0)
(1.00004 0.00422231 0)
(1.00034 0.00471567 0)
(1.00173 0.00414653 0)
(1.00261 0.00341471 0)
(1.00265 0.00310349 0)
(1.00232 0.00324428 0)
(1.00223 0.00300328 0)
(1.00199 0.00283463 0)
(1.00094 0.000369908 0)
(0.999071 -0.000952056 0)
(0.999166 0.000954458 0)
(0.999105 0.00184766 0)
(1.00162 0.00087326 0)
(1.00009 -0.000255034 0)
(0.99943 -0.000326976 0)
(0.998574 -0.000134741 0)
(0.998738 0.000525301 0)
(0.997875 0.00221633 0)
(0.998819 0.00362158 0)
(0.999744 0.00382699 0)
(1.00024 0.00400899 0)
(1.00046 0.0044923 0)
(1.00165 0.00409956 0)
(1.00256 0.003464 0)
(1.00277 0.0030835 0)
(1.00249 0.00319835 0)
(1.00233 0.00303496 0)
(1.00212 0.00291418 0)
(1.00088 0.000357012 0)
(0.999124 -0.000746141 0)
(0.999351 0.000814317 0)
(0.99913 0.00169341 0)
(1.0015 0.000907852 0)
(1.00006 -8.23685e-05 0)
(0.999494 -0.000131152 0)
(0.998731 7.72046e-05 0)
(0.999041 0.000698754 0)
(0.998302 0.00219292 0)
(0.999082 0.00345589 0)
(0.999891 0.00369926 0)
(1.00044 0.00381196 0)
(1.0006 0.00426522 0)
(1.00161 0.00402476 0)
(1.00252 0.00350393 0)
(1.00286 0.00307574 0)
(1.00266 0.00314566 0)
(1.00247 0.00303421 0)
(1.00225 0.00295967 0)
(1.00082 0.000345791 0)
(0.999168 -0.000566645 0)
(0.999518 0.000713567 0)
(0.999166 0.00153818 0)
(1.0014 0.000910882 0)
(1.00003 9.35921e-05 0)
(0.999558 7.71167e-05 0)
(0.998886 0.000270689 0)
(0.999328 0.00085679 0)
(0.998704 0.00217134 0)
(0.999341 0.00330994 0)
(1.00003 0.0035866 0)
(1.00062 0.00364245 0)
(1.00077 0.00404281 0)
(1.00162 0.0039243 0)
(1.00248 0.00352624 0)
(1.00294 0.00307276 0)
(1.00283 0.00309454 0)
(1.00262 0.00301377 0)
(1.00239 0.0029807 0)
(1.00078 0.000338097 0)
(0.999206 -0.000417412 0)
(0.999669 0.00064815 0)
(0.999206 0.00139457 0)
(1.00131 0.000888652 0)
(1.00002 0.000261561 0)
(0.999621 0.000297863 0)
(0.999035 0.000465062 0)
(0.999596 0.000990837 0)
(0.999082 0.00214446 0)
(0.999597 0.00317607 0)
(1.00017 0.00348519 0)
(1.00078 0.00349834 0)
(1.00095 0.00383201 0)
(1.00167 0.00379006 0)
(1.00246 0.0035209 0)
(1.003 0.00307867 0)
(1.00299 0.00304918 0)
(1.00279 0.00297676 0)
(1.00254 0.00299586 0)
(1.00073 0.000333336 0)
(0.999241 -0.000293947 0)
(0.999805 0.000605921 0)
(0.999248 0.00126852 0)
(1.00125 0.000848938 0)
(1.00002 0.000408156 0)
(0.999685 0.000537107 0)
(0.999172 0.000675307 0)
(0.999845 0.00110251 0)
(0.999438 0.0021174 0)
(0.999852 0.0030503 0)
(1.00032 0.00339944 0)
(1.00093 0.00337981 0)
(1.00112 0.00364938 0)
(1.00175 0.0036407 0)
(1.00247 0.00348132 0)
(1.00305 0.00308288 0)
(1.00314 0.00301109 0)
(1.00298 0.00290998 0)
(1.00268 0.00299402 0)
(1.00069 0.000332712 0)
(0.999273 -0.000196026 0)
(0.99993 0.00057368 0)
(0.99929 0.0011718 0)
(1.00121 0.000795771 0)
(1.00005 0.000509617 0)
(0.999758 0.000776614 0)
(0.999293 0.000912491 0)
(1.00007 0.00121842 0)
(0.999774 0.00207592 0)
(1.00011 0.00293118 0)
(1.00046 0.00331272 0)
(1.00106 0.00328763 0)
(1.00129 0.00349349 0)
(1.00185 0.003492 0)
(1.0025 0.00341091 0)
(1.00309 0.00306523 0)
(1.00326 0.00299007 0)
(1.00317 0.0028292 0)
(1.00285 0.00295779 0)
(1.00066 0.000334841 0)
(0.999303 -0.000114719 0)
(1.00005 0.000541752 0)
(0.999332 0.00110718 0)
(1.00117 0.000756581 0)
(1.00011 0.000573968 0)
(0.999852 0.000993205 0)
(0.999401 0.00116264 0)
(1.00026 0.00134657 0)
(1.00009 0.00203223 0)
(1.00037 0.00280464 0)
(1.00062 0.00322472 0)
(1.00119 0.00320981 0)
(1.00145 0.00336248 0)
(1.00197 0.00334542 0)
(1.00256 0.00331986 0)
(1.00315 0.0030159 0)
(1.00336 0.00296621 0)
(1.00335 0.00276597 0)
(1.00305 0.00287871 0)
(1.00063 0.000330787 0)
(0.999332 -3.32103e-05 0)
(1.00016 0.000508464 0)
(0.999378 0.00106847 0)
(1.00115 0.000741296 0)
(1.0002 0.000605889 0)
(0.999972 0.00116934 0)
(0.9995 0.00140947 0)
(1.00041 0.0014811 0)
(1.00037 0.00200307 0)
(1.00064 0.00266216 0)
(1.00079 0.00312668 0)
(1.00131 0.00313729 0)
(1.00159 0.00326007 0)
(1.00209 0.00321454 0)
(1.00263 0.00322929 0)
(1.00323 0.00294719 0)
(1.00346 0.00291795 0)
(1.0035 0.00272123 0)
(1.00325 0.00277358 0)
(1.0006 0.000341345 0)
(0.999361 -1.74893e-06 0)
(1.00027 0.000454717 0)
(0.999431 0.00107026 0)
(1.00113 0.000772921 0)
(1.00031 0.000626919 0)
(1.00013 0.00127571 0)
(0.9996 0.00163267 0)
(1.00053 0.00163203 0)
(1.00062 0.00199211 0)
(1.0009 0.00252822 0)
(1.00098 0.00300387 0)
(1.00144 0.00306131 0)
(1.00173 0.00317638 0)
(1.00222 0.00309678 0)
(1.00272 0.00313476 0)
(1.00331 0.00287262 0)
(1.00358 0.00284407 0)
(1.00364 0.002677 0)
(1.00345 0.00268218 0)
(1.00058 0.000335972 0)
(0.999385 8.63799e-05 0)
(1.0004 0.000423771 0)
(0.999504 0.00106892 0)
(1.00112 0.000839757 0)
(1.00043 0.000646352 0)
(1.00031 0.00129704 0)
(0.999718 0.00179146 0)
(1.00062 0.00178567 0)
(1.00082 0.00199772 0)
(1.00115 0.00240528 0)
(1.00119 0.00286904 0)
(1.00159 0.00296341 0)
(1.00186 0.00309816 0)
(1.00235 0.00299796 0)
(1.00281 0.00303614 0)
(1.00339 0.0027988 0)
(1.0037 0.00275503 0)
(1.00378 0.0026079 0)
(1.00363 0.00261248 0)
(1.00056 0.000326719 0)
(0.999407 0.000206189 0)
(1.0005 0.000424622 0)
(0.999581 0.001049 0)
(1.0011 0.000923071 0)
(1.00054 0.000680253 0)
(1.00052 0.00125647 0)
(0.999863 0.00187747 0)
(1.0007 0.0019261 0)
(1.00099 0.00203991 0)
(1.00139 0.00229758 0)
(1.00141 0.00273194 0)
(1.00176 0.00284204 0)
(1.002 0.00300691 0)
(1.00247 0.00290805 0)
(1.00291 0.00294294 0)
(1.00347 0.00272564 0)
(1.00381 0.00267163 0)
(1.00392 0.00251153 0)
(1.00379 0.00254229 0)
(1.00054 0.000331016 0)
(0.999424 0.000284204 0)
(1.00061 0.000428175 0)
(0.999673 0.00102926 0)
(1.00108 0.00101418 0)
(1.00062 0.000761194 0)
(1.00074 0.0011992 0)
(1.00004 0.001896 0)
(1.00078 0.0020408 0)
(1.00112 0.00210799 0)
(1.00159 0.00222397 0)
(1.00163 0.00259729 0)
(1.00194 0.00271206 0)
(1.00215 0.00289729 0)
(1.00259 0.00281328 0)
(1.00301 0.00285122 0)
(1.00355 0.00264376 0)
(1.00391 0.0025948 0)
(1.00407 0.00240525 0)
(1.00394 0.00245088 0)
(1.00053 0.000323793 0)
(0.999439 0.000381472 0)
(1.00069 0.000453269 0)
(0.999771 0.000996047 0)
(1.00108 0.00108319 0)
(1.00068 0.000873894 0)
(1.00095 0.00116094 0)
(1.00025 0.00185699 0)
(1.00088 0.00211106 0)
(1.00121 0.00217781 0)
(1.00175 0.0021868 0)
(1.00184 0.00247755 0)
(1.00213 0.00257451 0)
(1.00231 0.00277348 0)
(1.00273 0.00270272 0)
(1.00311 0.00275449 0)
(1.00363 0.00255326 0)
(1.00399 0.00251686 0)
(1.0042 0.00230465 0)
(1.0041 0.0023377 0)
(1.00052 0.000315268 0)
(0.999451 0.000464566 0)
(1.00076 0.000494332 0)
(0.999872 0.000970156 0)
(1.00109 0.00113417 0)
(1.00073 0.00100032 0)
(1.00113 0.00115424 0)
(1.00048 0.00178393 0)
(1.001 0.00212155 0)
(1.00129 0.00223771 0)
(1.00188 0.00217235 0)
(1.00202 0.0023855 0)
(1.00232 0.00243771 0)
(1.00248 0.00263995 0)
(1.00287 0.00257819 0)