/*--------------------------------*- C++ -*----------------------------------*\
| =========                 |                                                 |
| \\      /  F ield         | OpenFOAM: The Open Source CFD Toolbox           |
|  \\    /   O peration     | Version:  2506                                  |
|   \\  /    A nd           | Website:  www.openfoam.com                      |
|    \\/     M anipulation  |                                                 |
\*---------------------------------------------------------------------------*/
FoamFile
{
    version     2.0;
    format      ascii;
    arch        "LSB;label=32;scalar=64";
    class       volScalarField;
    location    "8.95";
    object      p;
}
// * * * * * * * * * * * * * * * * * * * * * * * * * * * * * * * * * * * * * //

dimensions      [0 2 -2 0 0 0 0];

internalField   nonuniform List<scalar> 
9600
(
2.49203e-10
0.00187893
0.000875639
-0.00133696
0.00133662
0.00208884
0.00255775
0.00634041
0.00551569
0.00779212
0.0095674
0.0117026
0.00970041
0.0102087
0.0105196
0.0114501
0.0112147
0.0122757
0.0125149
0.013844
1.55653e-08
0.00190327
0.000870001
-0.00137728
0.00134131
0.0021107
0.00256368
0.00633533
0.00551373
0.00778881
0.00956889
0.0116428
0.00971019
0.010208
0.0105448
0.0114514
0.0112222
0.01226
0.0125349
0.0137641
3.88514e-06
0.00192534
0.000847339
-0.00140614
0.0013694
0.0021326
0.00256928
0.00632251
0.00551052
0.00779089
0.00956923
0.0115887
0.00972927
0.0101982
0.0105885
0.0114452
0.0112396
0.0122317
0.0125491
0.0136412
1.1157e-05
0.00194008
0.000820693
-0.00138405
0.0014145
0.00216026
0.00258798
0.00630176
0.00550803
0.00780505
0.00957157
0.0115334
0.00975063
0.010181
0.0106346
0.0114317
0.0112539
0.012193
0.0125463
0.013506
2.2339e-05
0.00194712
0.000798881
-0.00131167
0.00147123
0.00219418
0.00262707
0.00627248
0.00550672
0.00782931
0.00957475
0.011474
0.00977284
0.0101586
0.0106816
0.0114136
0.0112613
0.0121486
0.0125294
0.0133689
3.74569e-05
0.00194642
0.00078596
-0.00119901
0.00153177
0.00223627
0.00268997
0.00623738
0.00550648
0.00785913
0.00957862
0.01141
0.00979511
0.0101325
0.0107292
0.0113934
0.0112624
0.0121048
0.0124986
0.01323
5.5426e-05
0.00193908
0.000785083
-0.00105763
0.00158968
0.0022861
0.00277384
0.00620102
0.00550736
0.00789127
0.00958431
0.0113416
0.00981688
0.0101046
0.0107769
0.0113733
0.01126
0.0120632
0.0124513
0.0130913
7.46535e-05
0.00192801
0.000797808
-0.000899652
0.00164086
0.00234153
0.00287309
0.00616794
0.0055092
0.00792359
0.00959254
0.0112689
0.00983773
0.0100769
0.0108248
0.0113563
0.0112544
0.0120213
0.0123893
0.0129555
9.39415e-05
0.00191714
0.00082326
-0.000734358
0.0016831
0.0023992
0.002983
0.00613746
0.00551165
0.00795431
0.00960288
0.0111922
0.00985706
0.0100505
0.010873
0.011344
0.0112429
0.0119788
0.012318
0.0128192
0.00011295
0.00191004
0.000860044
-0.000566768
0.00171474
0.00245568
0.0031011
0.00611018
0.00551489
0.00798216
0.00961439
0.0111122
0.00987406
0.0100256
0.0109212
0.0113368
0.0112245
0.0119382
0.0122409
0.0126771
0.00013204
0.00190873
0.000907647
-0.000398682
0.00173468
0.00250836
0.0032261
0.00608595
0.0055201
0.00800685
0.00962644
0.0110301
0.0098878
0.0100027
0.010968
0.0113352
0.0112001
0.0119004
0.0121593
0.0125275
0.000151846
0.00191346
0.000965999
-0.0002305
0.00174322
0.0025559
0.0033568
0.00606487
0.00552907
0.00802917
0.00963908
0.0109469
0.00989758
0.00998188
0.0110123
0.0113397
0.0111713
0.0118637
0.0120755
0.012373
0.000172944
0.00192335
0.00103438
-6.25865e-05
0.00174241
0.00259824
0.00349166
0.00604725
0.00554177
0.00805023
0.00965294
0.0108636
0.00990316
0.00996367
0.0110526
0.0113501
0.0111387
0.0118259
0.0119935
0.0122172
0.000195683
0.00193713
0.00111107
0.000104354
0.00173545
0.00263615
0.00362907
0.0060333
0.00556193
0.00807076
0.00966881
0.010781
0.00990452
0.00994827
0.0110879
0.0113659
0.0111032
0.0117844
0.0119159
0.0120618
0.000220225
0.00195371
0.00119397
0.00026961
0.00172579
0.0026707
0.00376769
0.00602301
0.00558707
0.00809096
0.00968726
0.0106999
0.00990164
0.00993584
0.0111177
0.011386
0.0110655
0.0117368
0.011844
0.011908
0.000246669
0.00197242
0.00128169
0.000432826
0.00171643
0.00270292
0.00390655
0.00601644
0.00561608
0.00811075
0.0097084
0.0106206
0.00989445
0.00992653
0.0111419
0.0114093
0.0110265
0.0116807
0.011778
0.0117575
0.000275111
0.00199293
0.00137263
0.000593955
0.0017096
0.00273365
0.00404504
0.00601383
0.00564796
0.00813001
0.00973196
0.0105435
0.00988286
0.00992049
0.0111608
0.0114345
0.010987
0.0116141
0.0117174
0.0116125
0.000305666
0.00201516
0.00146703
0.00075309
0.00170691
0.0027636
0.00418276
0.00601556
0.00568204
0.00814882
0.00975744
0.010469
0.00986696
0.00991774
0.0111751
0.0114604
0.0109482
0.0115364
0.0116609
0.0114761
0.000338482
0.00203912
0.00156479
0.000910344
0.0017096
0.00279341
0.00431929
0.00602208
0.00571785
0.00816731
0.00978434
0.0103972
0.00984702
0.009918
0.0111852
0.0114859
0.0109111
0.0114479
0.0116062
0.0113514
0.000373745
0.00206487
0.00166583
0.00106577
0.00171864
0.00282376
0.0044541
0.00603377
0.00575505
0.0081856
0.00981224
0.0103285
0.00982338
0.00992069
0.0111915
0.01151
0.0108768
0.0113501
0.011551
0.0112407
0.00041168
0.00209249
0.00177011
0.0012194
0.00173476
0.00285535
0.0045866
0.00605092
0.00579344
0.00820374
0.00984091
0.0102631
0.00979639
0.00992525
0.0111941
0.0115316
0.0108459
0.0112445
0.0114934
0.0111459
0.000452543
0.00212202
0.00187757
0.00137123
0.0017585
0.00288882
0.0047162
0.00607372
0.00583291
0.00822171
0.00987028
0.0102013
0.00976634
0.00993137
0.0111933
0.0115498
0.0108188
0.0111332
0.0114321
0.0110681
0.00049661
0.00215352
0.00198819
0.00152119
0.00179011
0.00292485
0.00484231
0.00610226
0.00587346
0.00823938
0.00990041
0.0101433
0.00973333
0.00993878
0.0111895
0.0115638
0.0107958
0.0110182
0.0113664
0.011008
0.00054417
0.00218701
0.00210197
0.00166919
0.0018296
0.00296409
0.00496444
0.00613656
0.00591519
0.00825644
0.00993136
0.0100895
0.00969747
0.00994702
0.011183
0.0115729
0.0107768
0.0109008
0.0112955
0.0109674
0.000595536
0.00222249
0.00221889
0.00181525
0.00187682
0.00300716
0.00508224
0.00617655
0.00595838
0.00827245
0.00996302
0.0100404
0.0096588
0.00995559
0.0111744
0.0115768
0.0107622
0.0107823
0.0112165
0.0109474
0.000651024
0.00226001
0.00233887
0.0019594
0.00193151
0.00305464
0.00519553
0.00622197
0.00600348
0.0082872
0.00999525
0.0099965
0.00961748
0.00996394
0.0111642
0.0115749
0.0107522
0.0106655
0.0111251
0.0109438
0.000710925
0.00229967
0.00246177
0.00210177
0.00199335
0.003107
0.00530421
0.00627251
0.00605089
0.00830075
0.0100279
0.00995816
0.00957391
0.00997177
0.011153
0.0115664
0.0107464
0.0105556
0.011019
0.0109456
0.000775507
0.00234159
0.00258742
0.00224258
0.00206209
0.00316462
0.0054083
0.00632785
0.00610086
0.00831296
0.0100607
0.00992542
0.0095285
0.00997905
0.0111418
0.0115505
0.0107423
0.0104577
0.0109021
0.0109399
0.000845051
0.00238596
0.00271558
0.00238215
0.00213745
0.00322775
0.00550806
0.00638768
0.00615352
0.00832375
0.0100936
0.00989844
0.00948112
0.00998554
0.0111326
0.011528
0.0107361
0.0103735
0.0107834
0.0109188
0.000919864
0.00243299
0.00284593
0.00252084
0.00221916
0.00329646
0.00560402
0.00645186
0.00620896
0.00833302
0.0101265
0.0098775
0.00943127
0.00999023
0.0111274
0.0115015
0.0107253
0.0102994
0.0106695
0.0108846
0.00100024
0.00248294
0.00297806
0.00265905
0.00230723
0.00337061
0.00569651
0.00652032
0.00626731
0.00834081
0.0101595
0.00986311
0.00937864
0.00999164
0.0111267
0.0114735
0.0107106
0.0102318
0.0105612
0.0108451
0.00108643
0.00253614
0.00311157
0.00279721
0.00240177
0.00344989
0.00578562
0.00659317
0.00632882
0.00834696
0.0101922
0.00985619
0.00932328
0.00998818
0.0111312
0.0114455
0.0106933
0.0101715
0.0104566
0.0108031
0.00117863
0.00259295
0.00324611
0.00293577
0.00250285
0.00353386
0.00587127
0.00667061
0.00639407
0.00835173
0.0102241
0.0098579
0.0092654
0.0099776
0.0111422
0.0114198
0.0106719
0.010121
0.0103577
0.0107569
0.00127698
0.00265374
0.00338145
0.00307491
0.0026108
0.0036227
0.00595334
0.00675255
0.00646394
0.00835286
0.0102541
0.00986935
0.00920559
0.00995684
0.0111601
0.0114012
0.0106437
0.010079
0.0102714
0.0107063
0.00138167
0.00271875
0.00351741
0.00321471
0.00272597
0.00371688
0.00603182
0.00683863
0.00653928
0.00835044
0.0102809
0.00989136
0.00914563
0.00992296
0.0111827
0.0113951
0.0106087
0.010039
0.010204
0.0106575
0.00149295
0.00278812
0.00365395
0.00335551
0.00284827
0.00381656
0.00610659
0.00692832
0.0066211
0.00834507
0.0103025
0.00992426
0.009089
0.00987431
0.011206
0.0114056
0.0105712
0.00999414
0.0101557
0.01062
0.00161101
0.00286193
0.00379131
0.00349775
0.00297726
0.00392204
0.0061774
0.00702053
0.00671085
0.00833802
0.0103164
0.00996749
0.00903971
0.00981076
0.011225
0.0114341
0.0105376
0.00993992
0.0101208
0.0106025
0.00173611
0.00294001
0.00392989
0.0036419
0.00311232
0.00403399
0.00624433
0.00711397
0.00680953
0.00833108
0.0103205
0.010019
0.00900181
0.00973312
0.0112348
0.0114807
0.0105148
0.00987468
0.0100903
0.01061
0.00186864
0.00302201
0.00407005
0.00378878
0.00325225
0.00415322
0.00630842
0.00720697
0.00691743
0.00832636
0.0103127
0.0100756
0.00897909
0.00964338
0.0112302
0.0115446
0.0105106
0.00979885
0.0100533
0.0106409
0.00200902
0.0031076
0.0042119
0.00393968
0.00339541
0.00428015
0.00637151
0.00729744
0.00703393
0.00832678
0.0102921
0.0101334
0.00897439
0.00954552
0.0112063
0.0116222
0.0105336
0.00971749
0.00999828
0.0106838
0.00215766
0.00319661
0.00435506
0.00409613
0.00354065
0.0044142
0.00643606
0.00738409
0.00715752
0.00833527
0.0102604
0.0101882
0.00898878
0.00944493
0.0111581
0.0117056
0.0105911
0.00964326
0.0099177
0.0107222
0.00231497
0.00328903
0.00449905
0.00425891
0.00368687
0.00455346
0.00650482
0.00746683
0.00728642
0.00835342
0.0102175
0.0102373
0.00902238
0.00934721
0.0110819
0.011783
0.0106867
0.00959363
0.0098131
0.0107379
0.00248144
0.00338508
0.00464285
0.00443111
0.00383383
0.00469486
0.00658021
0.00754663
0.00741777
0.00838101
0.0101601
0.0102798
0.00907544
0.00925802
0.0109767
0.0118425
0.0108188
0.00958448
0.00969498
0.0107158
0.00265753
0.00348534
0.00478405
0.00461538
0.0039836
0.00483453
0.00666347
0.00762578
0.00754838
0.00841754
0.0101052
0.0103144
0.00914749
0.00918364
0.0108445
0.0118733
0.0109799
0.00962959
0.00958092
0.0106483
0.00284343
0.00359061
0.00491992
0.00481276
0.00414053
0.00496859
0.00675325
0.00770753
0.00767695
0.00846205
0.0100501
0.0103397
0.00923703
0.00913056
0.010691
0.0118655
0.011155
0.00973861
0.00949319
0.0105381
0.00303899
0.00370214
0.0050482
0.0050228
0.00431011
0.00509475
0.00684591
0.00779514
0.00780435
0.00851183
0.00999359
0.0103558
0.00934239
0.00910515
0.0105264
0.011813
0.0113254
0.00991022
0.00945541
0.0104011
0.00324377
0.00382167
0.00516749
0.00524388
0.00449744
0.00521277
0.00693633
0.00789061
0.00793258
0.00856484
0.00993603
0.010363
0.00946135
0.00911346
0.0103635
0.0117175
0.0114717
0.010127
0.00948736
0.010266
0.00345714
0.00395082
0.00527738
0.00547145
0.00470786
0.00532487
0.00701738
0.00799358
0.00806494
0.00862192
0.00987891
0.0103608
0.00958914
0.00915888
0.0102152
0.0115878
0.0115797
0.010365
0.00959309
0.0101648
0.00367828
0.00409149
0.00537832
0.00569849
0.00494493
0.00543676
0.00708288
0.00810082
0.0082062
0.00868554
0.00982432
0.01035
0.0097187
0.00924148
0.0100935
0.0114347
0.0116435
0.0106023
0.00975813
0.0101228
0.00390613
0.00424569
0.00547165
0.00591777
0.00520858
0.00555679
0.00712975
0.00820581
0.00836021
0.00876024
0.00977467
0.0103289
0.00984327
0.00935769
0.0100113
0.0112724
0.0116621
0.0108225
0.00996128
0.0101482
0.00413941
0.00441497
0.00556004
0.00612339
0.00549632
0.00569469
0.00715858
0.00829837
0.00852646
0.00885355
0.00973534
0.0102969
0.00995476
0.00949704
0.00997745
0.011117
0.0116389
0.0110146
0.0101846
0.0102317
0.00437654
0.0046003
0.00564795
0.00631111
0.005801
0.00585956
0.00717544
0.00836729
0.00869908
0.00897158
0.00971441
0.0102579
0.0100464
0.00964857
0.00999203
0.0109861
0.0115857
0.0111708
0.0104135
0.0103564
0.00461622
0.00480157
0.00574059
0.00647856
0.00611211
0.00605819
0.00719136
0.00840562
0.00886642
0.00911629
0.00972138
0.0102156
0.0101157
0.00980004
0.0100452
0.0108935
0.0115197
0.0112885
0.0106366
0.0105091
0.00485738
0.00501917
0.00584398
0.00662349
0.00641615
0.00629105
0.00722188
0.00841428
0.0090132
0.0092846
0.00976535
0.0101851
0.0101656
0.00994061
0.0101264
0.0108426
0.011457
0.0113726
0.0108446
0.0106839
0.00509864
0.00525042
0.00596591
0.00674877
0.00670105
0.00655275
0.00727932
0.00840011
0.00912596
0.00946676
0.0098516
0.0101829
0.0102034
0.0100628
0.0102252
0.0108285
0.0114092
0.0114339
0.0110313
0.010875
0.00534071
0.00549121
0.00610584
0.0068604
0.0069621
0.00683643
0.00737508
0.00837737
0.00919807
0.00964505
0.00997838
0.0102166
0.0102361
0.0101628
0.0103293
0.0108449
0.0113828
0.0114865
0.0111964
0.0110709
0.00558517
0.00574117
0.0062649
0.00695854
0.00719039
0.00712928
0.007517
0.00836972
0.00923218
0.00980007
0.0101361
0.010293
0.0102767
0.0102443
0.0104274
0.0108859
0.0113801
0.0115408
0.0113456
0.0112586
0.00583189
0.00600598
0.00644548
0.00704437
0.00737658
0.00741486
0.00770301
0.00839715
0.00924075
0.00991682
0.0103068
0.0104131
0.0103437
0.0103189
0.0105131
0.0109401
0.011399
0.0116017
0.0114887
0.0114359
0.00608006
0.0062633
0.0066441
0.00714515
0.00753599
0.00768515
0.00792359
0.00846693
0.00924299
0.00999085
0.0104679
0.0105706
0.0104489
0.0103995
0.0105907
0.0109977
0.0114324
0.0116674
0.0116322
0.0116129
0.00632756
0.00651785
0.00685897
0.00726633
0.00767461
0.00792853
0.00816039
0.00857869
0.00925962
0.01003
0.0106006
0.0107494
0.0105949
0.0105015
0.0106701
0.0110561
0.0114744
0.0117345
0.011774
0.0117975
0.00657437
0.00676829
0.00708638
0.00740943
0.00780083
0.00814086
0.00840069
0.00873082
0.00930619
0.0100522
0.0106972
0.0109282
0.0107798
0.0106355
0.0107583
0.0111178
0.0115241
0.0118028
0.011908
0.0119867
0.00682138
0.00701338
0.00731544
0.00757417
0.00793002
0.00832675
0.00863349
0.00891323
0.00938788
0.0100766
0.010762
0.0110884
0.0109941
0.0108082
0.0108663
0.0111847
0.01158
0.0118753
0.0120327
0.0121717
0.00706766
0.00725095
0.00754585
0.00775966
0.00806717
0.00848962
0.00885101
0.00911436
0.00950506
0.0101185
0.0108074
0.0112202
0.0112064
0.0110134
0.0110066
0.0112639
0.0116402
0.0119518
0.0121504
0.0123453
0.00731453
0.00749017
0.00776946
0.00795469
0.00821532
0.00863811
0.00905002
0.00932408
0.00965373
0.0101876
0.0108495
0.0113253
0.0114036
0.0112413
0.0111851
0.0113689
0.0117078
0.0120317
0.0122653
0.0125069
0.00755994
0.00772055
0.00798654
0.00815649
0.00837829
0.00878229
0.0092309
0.00953274
0.00982562
0.0102867
0.0109027
0.0114111
0.0115793
0.01147
0.0113911
0.0115096
0.011792
0.0121144
0.0123801
0.0126596
0.00780105
0.00795062
0.00819878
0.00836162
0.00855419
0.00892469
0.00939351
0.0097333
0.0100131
0.0104148
0.0109764
0.0114903
0.0117351
0.0116912
0.0116127
0.0116831
0.0119037
0.0122038
0.0124939
0.0128063
0.00803718
0.00817198
0.00840412
0.00856463
0.00874017
0.00907392
0.00954494
0.0099217
0.0102074
0.0105672
0.0110746
0.011575
0.0118781
0.0119024
0.0118419
0.0118802
0.0120478
0.0123107
0.0126111
0.0129519
0.00826731
0.0083938
0.00860312
0.00875827
0.00892777
0.00922925
0.00969011
0.0100977
0.010402
0.0107387
0.0111987
0.0116728
0.012011
0.0121005
0.0120743
0.0120947
0.0122208
0.0124432
0.0127371
0.0130983
0.00848767
0.00860782
0.00879808
0.00894745
0.0091162
0.00939049
0.00983146
0.01026
0.0105905
0.010921
0.0113443
0.0117871
0.0121219
0.012285
0.0123072
0.0123267
0.0124215
0.0126061
0.0128799
0.01325
0.00869642
0.00880672
0.00898544
0.00913196
0.00930315
0.00955707
0.00997262
0.0104109
0.0107708
0.0111078
0.0115057
0.0119259
0.0122982
0.012481
0.0125457
0.0125786
0.012652
0.0128018
0.0130488
0.0134147
0.00889497
0.00900683
0.00916538
0.00929799
0.0094758
0.00972279
0.0101166
0.0105534
0.0109413
0.0112995
0.0116801
0.0120656
0.012363
0.0126462
0.0127784
0.0128379
0.0129025
0.0130197
0.0132389
0.0135924
0.00907834
0.00918912
0.00933485
0.00945461
0.00963647
0.00988585
0.0102674
0.0106904
0.0110892
0.0114854
0.0118914
0.012299
0.012746
0.0130158
0.0131563
0.0132333
0.0132795
0.0133356
0.0134942
0.0137888
0.00924112
0.0093546
0.00949869
0.00960686
0.0097822
0.0100252
0.0104041
0.0108326
0.0112223
0.0115988
0.0119734
0.0123789
0.0127505
0.0130902
0.0133346
0.013523
0.0136972
0.0138288
0.0139745
0.0142247
0.00938909
0.00950831
0.0096493
0.00974903
0.00992992
0.0101643
0.0105191
0.0109632
0.011421
0.0118823
0.0124312
0.0128763
0.0132823
0.0136262
0.0138257
0.0139056
0.0139843
0.0141571
0.0142874
0.0144621
0.00951228
0.00960616
0.00973295
0.0098463
0.0100537
0.0103272
0.0106491
0.0109681
0.0113169
0.0117147
0.0121831
0.0127895
0.0133915
0.0139089
0.0143974
0.0148197
0.0151985
0.015566
0.0160014
0.016405
0.00964921
0.0097662
0.00989675
0.00996133
0.0101206
0.0103702
0.0107722
0.0112792
0.0118169
0.0123155
0.0127496
0.0131684
0.0135835
0.0139697
0.0142971
0.014629
0.015025
0.0154658
0.0158909
0.0162384
0.00957546
0.00967584
0.00992283
0.0101605
0.0104247
0.0107176
0.0110768
0.0114467
0.0118132
0.0121968
0.0126263
0.0130822
0.0135739
0.0140731
0.0146229
0.0152194
0.0157982
0.0163448
0.0168171
0.0171676
0.00981243
0.00996577
0.0101734
0.0103118
0.0105303
0.0108254
0.011196
0.0115938
0.012038
0.0125163
0.0129979
0.0134428
0.0138486
0.0141968
0.0144441
0.0146268
0.0147525
0.0148179
0.014847
0.0148787
0.00968622
0.00981235
0.0101277
0.0104316
0.0107229
0.011026
0.0113687
0.0117255
0.0120998
0.0124629
0.0128917
0.0133535
0.0138175
0.0143155
0.0148246
0.0153424
0.01587
0.0163852
0.0168394
0.0171535
0.00983907
0.0099926
0.0103347
0.0106117
0.0108774
0.011162
0.0114929
0.0118349
0.0122317
0.012642
0.0130858
0.0135545
0.0139657
0.0143392
0.0146828
0.0150164
0.0153711
0.0157492
0.0161099
0.0163527
0.0160611
0.0133934
0.00829941
0.00415107
0.00363213
0.00534847
0.00735949
0.00914027
0.010624
0.0117985
0.0127432
0.013587
0.0143871
0.0151487
0.0158656
0.0165273
0.0171986
0.0179541
0.0187304
0.0194315
0.0200601
0.0207107
0.0214677
0.0222876
0.0230319
0.0236844
0.0243581
0.0251043
0.0259056
0.0267475
0.0276162
0.0284899
0.0293654
0.0302477
0.031138
0.0320126
0.0328476
0.0336664
0.0345086
0.0353769
0.0362701
0.0371928
0.0381407
0.0391216
0.040118
0.0410968
0.0420677
0.0430847
0.0441488
0.0452079
0.04622
0.047238
0.0483035
0.0493872
0.0504757
0.0516304
0.052843
0.0540603
0.0553011
0.0565952
0.0579391
0.0592628
0.0605042
0.0617006
0.0630161
0.0644441
0.0659251
0.067394
0.0688611
0.0703484
0.0718609
0.0733686
0.0749183
0.0765249
0.0781705
0.079837
0.0815205
0.0832618
0.0850147
0.0868286
0.0886553
0.0905343
0.092441
0.0944063
0.0964181
0.098431
0.100491
0.102572
0.10471
0.106912
0.109111
0.111363
0.113606
0.115922
0.118246
0.120591
0.122954
0.125241
0.127321
0.12927
0.0157602
0.0132986
0.00839533
0.00431037
0.00372618
0.00539126
0.00738464
0.00915754
0.0106372
0.0118094
0.0127524
0.0135949
0.0143939
0.0151545
0.0158708
0.0165318
0.0172024
0.0179575
0.0187336
0.0194344
0.0200626
0.0207128
0.0214695
0.0222894
0.0230336
0.0236859
0.0243595
0.0251054
0.0259066
0.0267485
0.0276171
0.0284908
0.0293662
0.0302485
0.0311388
0.0320134
0.0328484
0.0336671
0.0345093
0.0353776
0.0362708
0.0371935
0.0381414
0.0391223
0.0401186
0.0410974
0.0420682
0.0430852
0.0441493
0.0452085
0.0462205
0.0472385
0.0483039
0.0493876
0.0504761
0.0516307
0.0528434
0.0540606
0.0553014
0.0565955
0.0579394
0.0592631
0.0605046
0.0617009
0.0630163
0.0644444
0.0659253
0.0673942
0.0688613
0.0703486
0.0718611
0.0733688
0.0749185
0.076525
0.0781707
0.0798371
0.0815207
0.0832619
0.0850149
0.0868287
0.0886555
0.0905344
0.0924412
0.0944064
0.0964183
0.0984311
0.100491
0.102573
0.10471
0.106912
0.109111
0.111363
0.113606
0.115922
0.118246
0.120591
0.122954
0.125241
0.127321
0.12927
0.0153772
0.0131409
0.00854358
0.00458738
0.00388588
0.00544936
0.00741364
0.00917875
0.0106531
0.0118215
0.0127625
0.0136037
0.0144015
0.015161
0.0158763
0.0165365
0.0172063
0.017961
0.0187368
0.0194373
0.0200651
0.0207148
0.0214714
0.0222912
0.0230353
0.0236873
0.0243607
0.0251065
0.0259076
0.0267495
0.027618
0.0284917
0.029367
0.0302492
0.0311395
0.0320142
0.0328491
0.0336678
0.0345099
0.0353782
0.0362714
0.0371941
0.038142
0.0391228
0.0401192
0.041098
0.0420687
0.0430857
0.0441498
0.045209
0.0462209
0.0472389
0.0483043
0.049388
0.0504764
0.0516311
0.0528437
0.0540609
0.0553017
0.0565958
0.0579397
0.0592634
0.0605049
0.0617011
0.0630164
0.0644445
0.0659255
0.0673944
0.0688615
0.0703487
0.0718612
0.0733689
0.0749186
0.0765252
0.0781708
0.0798373
0.0815208
0.0832621
0.085015
0.0868288
0.0886556
0.0905345
0.0924413
0.0944065
0.0964184
0.0984312
0.100491
0.102573
0.10471
0.106912
0.109111
0.111363
0.113606
0.115922
0.118246
0.120592
0.122954
0.125241
0.127321
0.12927
0.0150055
0.0129853
0.0087323
0.00494117
0.00410985
0.00553635
0.00745938
0.00921276
0.0106774
0.0118383
0.0127753
0.0136147
0.0144112
0.0151693
0.0158836
0.016543
0.0172121
0.0179658
0.0187408
0.0194409
0.0200686
0.0207181
0.0214741
0.0222935
0.0230373
0.0236891
0.0243623
0.0251079
0.0259087
0.0267505
0.0276191
0.0284927
0.0293679
0.03025
0.0311403
0.0320149
0.0328498
0.0336684
0.0345105
0.0353787
0.0362719
0.0371947
0.0381426
0.0391234
0.0401197
0.0410985
0.0420693
0.0430862
0.0441503
0.0452095
0.0462214
0.0472393
0.0483047
0.0493884
0.0504768
0.0516314
0.0528441
0.0540612
0.055302
0.056596
0.0579399
0.0592638
0.0605052
0.0617013
0.0630165
0.0644447
0.0659257
0.0673947
0.0688617
0.0703489
0.0718614
0.0733691
0.0749187
0.0765253
0.078171
0.0798374
0.0815209
0.0832622
0.0850151
0.086829
0.0886557
0.0905346
0.0924414
0.0944066
0.0964185
0.0984313
0.100491
0.102573
0.10471
0.106913
0.109111
0.111363
0.113606
0.115923
0.118246
0.120592
0.122954
0.125242
0.127321
0.12927
0.0146497
0.0128388
0.0089411
0.00532296
0.00436305
0.00563932
0.00751509
0.00925674
0.0107101
0.0118608
0.012792
0.013629
0.0144238
0.01518
0.015893
0.0165521
0.0172208
0.017973
0.0187462
0.0194456
0.0200738
0.0207235
0.0214787
0.0222969
0.0230401
0.0236918
0.0243648
0.0251099
0.0259103
0.0267519
0.0276206
0.0284941
0.0293691
0.030251
0.0311412
0.0320158
0.0328506
0.0336691
0.034511
0.0353792
0.0362724
0.0371952
0.0381432
0.039124
0.0401203
0.0410991
0.0420699
0.0430867
0.0441508
0.0452101
0.046222
0.0472398
0.0483051
0.0493888
0.0504771
0.0516317
0.0528444
0.0540616
0.0553023
0.0565963
0.0579403
0.0592642
0.0605056
0.0617015
0.0630167
0.064445
0.065926
0.0673949
0.0688619
0.0703491
0.0718616
0.0733693
0.0749189
0.0765255
0.0781711
0.0798376
0.081521
0.0832623
0.0850152
0.0868291
0.0886559
0.0905348
0.0924415
0.0944067
0.0964186
0.0984314
0.100491
0.102573
0.10471
0.106913
0.109111
0.111363
0.113606
0.115923
0.118246
0.120592
0.122954
0.125242
0.127322
0.129271
0.0143146
0.0127004
0.00914729
0.00570746
0.00462935
0.00574934
0.00757299
0.00930456
0.0107479
0.0118876
0.0128122
0.0136464
0.014439
0.0151928
0.0159041
0.0165634
0.0172323
0.0179827
0.0187531
0.0194515
0.0200808
0.0207314
0.0214855
0.0223017
0.0230441
0.023696
0.0243688
0.0251129
0.0259124
0.0267538
0.0276224
0.0284959
0.0293707
0.0302524
0.0311424
0.0320168
0.0328515
0.0336699
0.0345117
0.0353796
0.0362727
0.0371957
0.0381438
0.0391246
0.0401209
0.0410997
0.0420706
0.0430874
0.0441515
0.0452107
0.0462227
0.0472404
0.0483056
0.0493892
0.0504775
0.0516321
0.0528448
0.054062
0.0553026
0.0565967
0.0579407
0.0592647
0.0605061
0.0617017
0.0630168
0.0644452
0.0659263
0.0673952
0.0688622
0.0703494
0.0718619
0.0733695
0.074919
0.0765256
0.0781713
0.0798377
0.0815212
0.0832625
0.0850154
0.0868292
0.088656
0.0905349
0.0924416
0.0944068
0.0964188
0.0984316
0.100491
0.102573
0.10471
0.106913
0.109111
0.111363
0.113606
0.115923
0.118246
0.120592
0.122955
0.125242
0.127322
0.129271
0.014006
0.0125632
0.00933569
0.00608568
0.00490727
0.00586723
0.00763228
0.0093544
0.0107893
0.011918
0.0128354
0.013666
0.0144562
0.0152069
0.0159162
0.0165761
0.0172458
0.0179944
0.0187614
0.0194586
0.0200895
0.0207416
0.0214942
0.0223077
0.0230491
0.0237018
0.0243747
0.0251175
0.0259156
0.0267563
0.0276248
0.0284981
0.0293726
0.030254
0.0311438
0.0320181
0.0328528
0.0336711
0.0345125
0.03538
0.036273
0.0371963
0.0381445
0.0391251
0.0401212
0.0411003
0.0420714
0.0430883
0.0441522
0.0452114
0.0462235
0.0472412
0.0483062
0.0493897
0.050478
0.0516326
0.0528452
0.0540624
0.0553031
0.0565971
0.0579411
0.0592653
0.0605067
0.0617019
0.063017
0.0644455
0.0659267
0.0673955
0.0688625
0.0703497
0.0718622
0.0733697
0.0749192
0.0765258
0.0781715
0.0798379
0.0815214
0.0832626
0.0850155
0.0868294
0.0886561
0.090535
0.0924418
0.0944069
0.0964189
0.0984317
0.100492
0.102573
0.104711
0.106913
0.109111
0.111363
0.113606
0.115923
0.118246
0.120592
0.122955
0.125243
0.127323
0.129272
0.0137221
0.0124195
0.00949969
0.00645827
0.00520189
0.00599789
0.00769458
0.00940593
0.0108341
0.0119519
0.0128611
0.0136877
0.0144749
0.0152222
0.0159292
0.0165895
0.0172603
0.0180072
0.0187709
0.0194668
0.0200997
0.0207534
0.0215043
0.0223145
0.023055
0.0237091
0.0243825
0.0251237
0.0259199
0.0267596
0.0276278
0.0285007
0.0293747
0.0302557
0.0311452
0.0320195
0.0328544
0.0336729
0.0345139
0.0353806
0.0362733
0.0371969
0.0381453
0.0391256
0.0401213
0.0411007
0.0420723
0.0430892
0.0441528
0.0452122
0.0462246
0.0472423
0.0483069
0.0493903
0.0504786
0.0516331
0.0528456
0.0540627
0.0553035
0.0565976
0.0579416
0.059266
0.0605073
0.0617023
0.0630173
0.064446
0.0659271
0.067396
0.0688629
0.07035
0.0718625
0.07337
0.0749195
0.0765261
0.0781717
0.0798382
0.0815215
0.0832628
0.0850157
0.0868295
0.0886563
0.0905352
0.0924419
0.0944071
0.0964191
0.0984319
0.100492
0.102573
0.104711
0.106913
0.109112
0.111363
0.113606
0.115923
0.118246
0.120592
0.122955
0.125243
0.127324
0.129273
0.0134573
0.0122692
0.00964266
0.00682879
0.00551677
0.00614422
0.00776036
0.00945818
0.0108813
0.0119889
0.0128894
0.0137113
0.0144951
0.0152386
0.0159429
0.0166036
0.0172756
0.0180209
0.0187812
0.0194759
0.0201109
0.0207664
0.0215152
0.0223216
0.0230612
0.0237173
0.0243917
0.0251314
0.0259254
0.0267638
0.0276315
0.0285038
0.0293771
0.0302574
0.0311465
0.0320208
0.0328562
0.0336751
0.0345158
0.0353817
0.0362739
0.0371977
0.0381463
0.039126
0.0401212
0.0411009
0.0420732
0.0430901
0.0441534
0.0452128
0.0462259
0.0472437
0.0483079
0.0493911
0.0504796
0.0516339
0.0528461
0.054063
0.0553039
0.056598
0.0579421
0.0592667
0.0605081
0.0617027
0.0630176
0.0644464
0.0659276
0.0673964
0.0688633
0.0703505
0.071863
0.0733704
0.0749198
0.0765264
0.078172
0.0798385
0.0815218
0.0832631
0.0850159
0.0868297
0.0886565
0.0905353
0.092442
0.0944072
0.0964192
0.098432
0.100492
0.102573
0.104711
0.106913
0.109112
0.111364
0.113607
0.115923
0.118247
0.120592
0.122955
0.125244
0.127326
0.129274
0.0132097
0.0121208
0.00976957
0.00719561
0.00585009
0.00630713
0.00782997
0.00951031
0.0109303
0.0120289
0.0129202
0.0137366
0.0145166
0.015256
0.0159574
0.0166183
0.0172915
0.0180354
0.0187922
0.0194856
0.0201228
0.0207801
0.0215268
0.0223291
0.0230676
0.0237259
0.0244017
0.0251401
0.0259319
0.0267689
0.0276358
0.0285074
0.0293797
0.0302591
0.0311475
0.0320216
0.0328577
0.0336775
0.0345182
0.0353832
0.0362749
0.0371989
0.0381476
0.0391267
0.0401211
0.041101
0.042074
0.0430909
0.0441536
0.0452133
0.0462271
0.0472452
0.048309
0.0493921
0.0504809
0.0516351
0.0528468
0.0540634
0.0553042
0.0565982
0.0579424
0.0592674
0.0605089
0.0617033
0.0630181
0.064447
0.0659282
0.0673969
0.0688639
0.0703511
0.0718635
0.0733709
0.0749202
0.0765268
0.0781724
0.0798389
0.0815221
0.0832634
0.0850162
0.0868299
0.0886567
0.0905355
0.0924422
0.0944073
0.0964194
0.0984322
0.100492
0.102573
0.104711
0.106913
0.109112
0.111364
0.113607
0.115923
0.118247
0.120593
0.122956
0.125245
0.127328
0.129276
0.012983
0.011983
0.00988093
0.00755179
0.0061977
0.00648795
0.00790496
0.00956204
0.0109802
0.0120715
0.0129535
0.0137636
0.0145392
0.0152743
0.0159727
0.0166336
0.0173082
0.0180507
0.0188039
0.0194959
0.0201352
0.0207945
0.021539
0.022337
0.0230743
0.0237347
0.024412
0.0251494
0.0259391
0.0267746
0.0276406
0.0285113
0.0293827
0.030261
0.0311483
0.032022
0.0328589
0.03368
0.034521
0.0353853
0.0362763
0.0372004
0.0381493
0.0391276
0.040121
0.0411011
0.0420749
0.0430917
0.0441536
0.0452133
0.0462282
0.0472467
0.0483102
0.0493933
0.0504825
0.0516367
0.0528478
0.0540641
0.0553046
0.0565983
0.0579424
0.0592679
0.0605098
0.061704
0.0630188
0.0644478
0.0659288
0.0673974
0.0688644
0.0703517
0.0718641
0.0733715
0.0749208
0.0765273
0.0781729
0.0798394
0.0815226
0.0832638
0.0850165
0.0868302
0.0886569
0.0905357
0.0924424
0.0944075
0.0964196
0.0984323
0.100492
0.102574
0.104711
0.106914
0.109112
0.111364
0.113607
0.115923
0.118247
0.120593
0.122957
0.125247
0.12733
0.129278
0.0127795
0.0118599
0.0099751
0.00789075
0.0065558
0.00668826
0.00798712
0.00961302
0.0110298
0.0121161
0.0129893
0.0137924
0.014563
0.0152934
0.0159885
0.0166495
0.0173256
0.0180669
0.0188165
0.0195067
0.020148
0.0208094
0.0215518
0.0223454
0.0230812
0.0237436
0.0244225
0.0251589
0.0259467
0.0267808
0.0276459
0.0285157
0.0293859
0.0302629
0.031149
0.0320222
0.0328598
0.0336823
0.034524
0.0353877
0.0362782
0.0372023
0.0381513
0.0391287
0.0401211
0.0411012
0.0420759
0.0430924
0.0441533
0.045213
0.046229
0.0472481
0.0483112
0.0493944
0.0504843
0.0516387
0.0528493
0.0540652
0.0553053
0.0565982
0.0579419
0.0592679
0.0605104
0.0617047
0.0630196
0.0644488
0.0659296
0.0673979
0.068865
0.0703522
0.0718647
0.0733721
0.0749214
0.0765279
0.0781735
0.07984
0.0815232
0.0832643
0.085017
0.0868306
0.0886573
0.090536
0.0924427
0.0944077
0.0964199
0.0984325
0.100492
0.102574
0.104711
0.106914
0.109112
0.111364
0.113607
0.115924
0.118248
0.120593
0.122957
0.125249
0.127333
0.12928
0.0125977
0.0117528
0.010053
0.00820837
0.00691997
0.00690809
0.00807767
0.00966289
0.0110779
0.0121621
0.0130276
0.0138232
0.014588
0.0153133
0.016005
0.0166661
0.0173439
0.0180841
0.01883
0.0195181
0.0201613
0.0208248
0.0215652
0.0223543
0.0230884
0.0237528
0.0244332
0.0251688
0.0259548
0.0267875
0.0276516
0.0285203
0.0293893
0.030265
0.0311496
0.0320221
0.0328605
0.0336846
0.034527
0.0353904
0.0362803
0.0372046
0.0381536
0.03913
0.0401212
0.0411015
0.042077
0.0430933
0.044153
0.0452123
0.0462294
0.0472491
0.048312
0.0493954
0.0504862
0.0516409