/*--------------------------------*- C++ -*----------------------------------*\
| =========                 |                                                 |
| \\      /  F ield         | OpenFOAM: The Open Source CFD Toolbox           |
|  \\    /   O peration     | Version:  2506                                  |
|   \\  /    A nd           | Website:  www.openfoam.com                      |
|    \\/     M anipulation  |                                                 |
\*---------------------------------------------------------------------------*/
FoamFile
{
    version     2.0;
    format      ascii;
    arch        "LSB;label=32;scalar=64";
    class       volVectorField;
    location    "8.95";
    object      U;
}
// * * * * * * * * * * * * * * * * * * * * * * * * * * * * * * * * * * * * * //

dimensions      [0 1 -1 0 0 0 0];

internalField   nonuniform List<vector> 
9600
(
(0.574296 -0.00984812 0)
(1.40545 -0.00321401 0)
(0.808138 0.00874059 0)
(1.28637 0.0170241 0)
(0.543488 -0.0179603 0)
(1.28348 -0.0256217 0)
(0.819216 -0.0210515 0)
(1.27421 0.0021313 0)
(0.829381 0.00405229 0)
(1.22732 0.00864367 0)
(0.8227 -0.00415421 0)
(1.20485 -0.000362089 0)
(0.777619 -0.00285855 0)
(1.21461 -0.0010848 0)
(0.794625 -6.18739e-05 0)
(1.18966 0.00854057 0)
(0.823007 0.00289211 0)
(1.15542 0.0112613 0)
(0.852109 0.00860499 0)
(1.1423 0.0134609 0)
(0.597318 -0.00991257 0)
(1.39132 -0.00470777 0)
(0.821821 0.00886783 0)
(1.27593 0.0194581 0)
(0.634468 -0.0183917 0)
(1.2501 -0.0283273 0)
(0.838082 -0.0216825 0)
(1.26155 0.00236637 0)
(0.85348 0.00424486 0)
(1.21149 0.0090384 0)
(0.865577 -0.00427454 0)
(1.18979 0.00107927 0)
(0.826969 -0.00337206 0)
(1.18649 -0.0010126 0)
(0.849933 0.000219318 0)
(1.14185 0.0079172 0)
(0.9002 0.00407904 0)
(1.07922 0.00984617 0)
(0.957814 0.0102061 0)
(1.02608 0.0112885 0)
(0.637125 -0.0100819 0)
(1.35693 -0.00586801 0)
(0.853083 0.00948751 0)
(1.26001 0.0213956 0)
(0.739447 -0.0183847 0)
(1.19992 -0.0294586 0)
(0.872349 -0.0220993 0)
(1.2314 0.00255662 0)
(0.899772 0.00460314 0)
(1.18133 0.00913178 0)
(0.931683 -0.004172 0)
(1.15795 0.00179371 0)
(0.904916 -0.00352117 0)
(1.13734 -0.00119444 0)
(0.931885 0.00103985 0)
(1.0808 0.00701576 0)
(0.975154 0.00549768 0)
(1.02508 0.00861351 0)
(1.00066 0.0108935 0)
(1.00641 0.0110616 0)
(0.691826 -0.0102227 0)
(1.30046 -0.00701236 0)
(0.898076 0.00990108 0)
(1.24031 0.0224671 0)
(0.847793 -0.0178931 0)
(1.13895 -0.0303524 0)
(0.913981 -0.0227588 0)
(1.18639 0.00241361 0)
(0.956324 0.00500371 0)
(1.14522 0.00878072 0)
(0.997002 -0.00393628 0)
(1.12037 0.00222258 0)
(0.975524 -0.00304554 0)
(1.09012 -0.00160335 0)
(0.993225 0.00201803 0)
(1.04462 0.00641298 0)
(1.01162 0.00641478 0)
(1.01338 0.00846039 0)
(1.00861 0.0109988 0)
(1.01064 0.0114482 0)
(0.756559 -0.0102643 0)
(1.22663 -0.00826825 0)
(0.947939 0.00989748 0)
(1.21834 0.0230085 0)
(0.941536 -0.0167685 0)
(1.07857 -0.0307016 0)
(0.950259 -0.0234664 0)
(1.1363 0.00195383 0)
(1.00772 0.00531629 0)
(1.1161 0.00822621 0)
(1.04397 -0.00357019 0)
(1.09154 0.00256733 0)
(1.01913 -0.00233593 0)
(1.06014 -0.0018907 0)
(1.02227 0.00277488 0)
(1.03356 0.00624113 0)
(1.02476 0.00697667 0)
(1.01772 0.00883745 0)
(1.01356 0.0110595 0)
(1.01386 0.0117802 0)
(0.823379 -0.010169 0)
(1.14606 -0.00956026 0)
(0.993059 0.00948658 0)
(1.19618 0.0231833 0)
(1.01064 -0.0151661 0)
(1.03103 -0.0305905 0)
(0.971615 -0.0242083 0)
(1.09257 0.00120205 0)
(1.04448 0.00537657 0)
(1.10091 0.00770475 0)
(1.06999 -0.00310933 0)
(1.07577 0.00297778 0)
(1.03855 -0.00157683 0)
(1.0455 -0.0019409 0)
(1.03038 0.00325069 0)
(1.03214 0.00626512 0)
(1.03001 0.00739818 0)
(1.02347 0.00921515 0)
(1.01953 0.0111848 0)
(1.01756 0.0121639 0)
(0.883735 -0.00991722 0)
(1.07244 -0.0107833 0)
(1.02586 0.0086358 0)
(1.17513 0.0230982 0)
(1.05394 -0.013259 0)
(1.00302 -0.0300118 0)
(0.97736 -0.0249513 0)
(1.06095 0.00015085 0)
(1.06556 0.00507587 0)
(1.09679 0.00730701 0)
(1.08109 -0.00254135 0)
(1.06847 0.00350053 0)
(1.04402 -0.000754267 0)
(1.0381 -0.0018126 0)
(1.02929 0.00351997 0)
(1.03108 0.00626619 0)
(1.03223 0.00761747 0)
(1.02782 0.00949194 0)
(1.02494 0.0113757 0)
(1.02214 0.0126016 0)
(0.931668 -0.00952948 0)
(1.01709 -0.0118729 0)
(1.0423 0.00736149 0)
(1.15441 0.0228658 0)
(1.07577 -0.0112616 0)
(0.99294 -0.0290474 0)
(0.973959 -0.0256477 0)
(1.03997 -0.00120682 0)
(1.07392 0.00440605 0)
(1.09624 0.00701017 0)
(1.08322 -0.0018465 0)
(1.06379 0.00413314 0)
(1.04312 0.000148127 0)
(1.03234 -0.00156695 0)
(1.0248 0.00367899 0)
(1.02797 0.00613882 0)
(1.0318 0.00759766 0)
(1.02999 0.00971407 0)
(1.0289 0.0115406 0)
(1.02659 0.012992 0)
(0.965393 -0.00907126 0)
(0.984198 -0.0127541 0)
(1.04245 0.00582215 0)
(1.13202 0.0225319 0)
(1.08191 -0.00936217 0)
(0.994033 -0.0278236 0)
(0.969048 -0.0261987 0)
(1.0252 -0.00279481 0)
(1.07243 0.00344245 0)
(1.09285 0.0067578 0)
(1.07941 -0.00104056 0)
(1.05833 0.00483144 0)
(1.0396 0.00111489 0)
(1.02624 -0.00124341 0)
(1.01894 0.0037766 0)
(1.02285 0.00590081 0)
(1.0285 0.00739737 0)
(1.02921 0.00983894 0)
(1.03041 0.0115562 0)
(1.02961 0.0132714 0)
(0.986562 -0.00861618 0)
(0.970436 -0.0133672 0)
(1.03043 0.00424285 0)
(1.1069 0.0220926 0)
(1.07777 -0.00770489 0)
(0.999471 -0.0264987 0)
(0.967062 -0.0265142 0)
(1.01323 -0.0044448 0)
(1.06322 0.00231197 0)
(1.08353 0.00649886 0)
(1.07085 -0.000189639 0)
(1.05102 0.00551982 0)
(1.03499 0.00211701 0)
(1.0199 -0.000843171 0)
(1.01251 0.00384376 0)
(1.01633 0.00563593 0)
(1.02259 0.0070659 0)
(1.02518 0.00980024 0)
(1.0286 0.0113866 0)
(1.02985 0.0134045 0)
(0.998425 -0.00821817 0)
(0.968695 -0.0136894 0)
(1.01284 0.00281787 0)
(1.08034 0.0215351 0)
(1.06795 -0.00637785 0)
(1.00503 -0.025218 0)
(0.968708 -0.0265655 0)
(1.00284 -0.00596482 0)
(1.04874 0.00115868 0)
(1.06848 0.00619194 0)
(1.05858 0.000606363 0)
(1.04207 0.00611414 0)
(1.02985 0.00310797 0)
(1.01407 -0.000360852 0)
(1.00626 0.00391246 0)
(1.00929 0.00541963 0)
(1.01495 0.00665072 0)
(1.01846 0.00961194 0)
(1.02347 0.0110758 0)
(1.02661 0.0133426 0)
(1.00428 -0.00789458 0)
(0.972324 -0.0137611 0)
(0.996116 0.00164865 0)
(1.05545 0.0208595 0)
(1.05622 -0.00540004 0)
(1.00895 -0.0240913 0)
(0.972677 -0.0263741 0)
(0.994278 -0.0072057 0)
(1.03224 0.000107213 0)
(1.05025 0.00581665 0)
(1.04424 0.00126275 0)
(1.03222 0.0065458 0)
(1.02434 0.0040222 0)
(1.00931 0.000190375 0)
(1.00088 0.00400915 0)
(1.00276 0.0053042 0)
(1.00701 0.00623225 0)
(1.01036 0.00934379 0)
(1.01605 0.0106882 0)
(1.02032 0.0130614 0)
(1.00672 -0.00763825 0)
(0.977164 -0.0136502 0)
(0.984148 0.000749779 0)
(1.03513 0.0200942 0)
(1.04524 -0.00473189 0)
(1.01092 -0.0231667 0)
(0.977298 -0.0259927 0)
(0.988185 -0.00811277 0)
(1.0171 -0.00076888 0)
(1.03223 0.00538356 0)
(1.02989 0.0017397 0)
(1.02241 0.00678104 0)
(1.01856 0.00479618 0)
(1.00568 0.000765053 0)
(0.996847 0.0041409 0)
(0.997599 0.00530976 0)
(1.00034 0.00588635 0)
(1.00267 0.00906386 0)
(1.00813 0.0102941 0)
(1.0126 0.0126155 0)
(1.00744 -0.00743207 0)
(0.981422 -0.0134233 0)
(0.977661 8.21339e-05 0)
(1.02053 0.0192891 0)
(1.03639 -0.00429488 0)
(1.01133 -0.0224319 0)
(0.981368 -0.0254886 0)
(0.984688 -0.00871332 0)
(1.00552 -0.00144166 0)
(1.01713 0.00492638 0)
(1.01726 0.00204905 0)
(1.01343 0.00683144 0)
(1.01276 0.00539216 0)
(1.00282 0.00131055 0)
(0.99418 0.00429341 0)
(0.99417 0.00541443 0)
(0.995975 0.00564537 0)
(0.996956 0.0088203 0)
(1.00159 0.00996544 0)
(1.00553 0.0121069 0)
(1.00741 -0.00725824 0)
(0.984691 -0.0131386 0)
(0.975341 -0.0004099 0)
(1.01096 0.0184889 0)
(1.02985 -0.00400706 0)
(1.01081 -0.0218469 0)
(0.984343 -0.0249205 0)
(0.983203 -0.00907794 0)
(0.997962 -0.00192043 0)
(1.00605 0.00448623 0)
(1.00728 0.00223998 0)
(1.00585 0.00674503 0)
(1.00736 0.00580659 0)
(1.00038 0.00178624 0)
(0.992594 0.00443414 0)
(0.992328 0.00556505 0)
(0.994012 0.00549474 0)
(0.993908 0.0086298 0)
(0.997594 0.00974612 0)
(1.00074 0.0116197 0)
(1.00712 -0.00710369 0)
(0.987085 -0.0128363 0)
(0.975378 -0.000771061 0)
(1.00484 0.0177105 0)
(1.0252 -0.00380655 0)
(1.00993 -0.0213679 0)
(0.986213 -0.0243282 0)
(0.982818 -0.00928645 0)
(0.993612 -0.00224392 0)
(0.99867 0.00409472 0)
(1.00006 0.00236711 0)
(0.999911 0.00657816 0)
(1.00282 0.00606479 0)
(0.998258 0.0021747 0)
(0.991733 0.00452896 0)
(0.991624 0.00570368 0)
(0.993787 0.0053914 0)
(0.993178 0.0084723 0)
(0.996122 0.00963384 0)
(0.998615 0.0111942 0)
(1.00677 -0.00696041 0)
(0.988796 -0.0125366 0)
(0.976388 -0.0010341 0)
(1.00085 0.0169581 0)
(1.02188 -0.00365845 0)
(1.00907 -0.0209565 0)
(0.987242 -0.0237274 0)
(0.98279 -0.00939629 0)
(0.991257 -0.00245678 0)
(0.994045 0.00376362 0)
(0.995164 0.00246601 0)
(0.995644 0.00637356 0)
(0.999434 0.00620285 0)
(0.996605 0.00247866 0)
(0.991366 0.00456011 0)
(0.991605 0.00579268 0)
(0.994419 0.00529672 0)
(0.993809 0.00830893 0)
(0.996326 0.00959079 0)
(0.998478 0.0108357 0)
(1.00644 -0.00682261 0)
(0.989983 -0.0122476 0)
(0.977604 -0.00122289 0)
(0.998203 0.0162278 0)
(1.01948 -0.00354636 0)
(1.00839 -0.0205842 0)
(0.987748 -0.0231174 0)
(0.982747 -0.00944619 0)
(0.989942 -0.00259958 0)
(0.991241 0.00348472 0)
(0.992051 0.00255103 0)
(0.992891 0.00615309 0)
(0.997272 0.00624999 0)
(0.995593 0.0027127 0)
(0.991402 0.00453217 0)
(0.991962 0.00582385 0)
(0.995265 0.00519757 0)
(0.994862 0.00811063 0)
(0.997161 0.00956781 0)
(0.999212 0.0105345 0)
(1.00613 -0.0066857 0)
(0.990784 -0.0119711 0)
(0.978689 -0.0013581 0)
(0.996553 0.0155093 0)
(1.01775 -0.0034565 0)
(1.0079 -0.0202325 0)
(0.987983 -0.0224979 0)
(0.982633 -0.00945692 0)
(0.98913 -0.00270708 0)
(0.989603 0.00324178 0)
(0.990218 0.00262308 0)
(0.991387 0.0059228 0)
(0.996158 0.00622528 0)
(0.995244 0.00289423 0)
(0.991779 0.00446455 0)
(0.992519 0.00581145 0)
(0.996027 0.00510278 0)
(0.995789 0.00787644 0)
(0.997904 0.00953108 0)
(0.999941 0.0102804 0)
(1.00582 -0.00654581 0)
(0.99134 -0.0117066 0)
(0.97954 -0.00145642 0)
(0.995698 0.0147928 0)
(1.01648 -0.00338213 0)
(1.00757 -0.0198884 0)
(0.988107 -0.0218686 0)
(0.982524 -0.00943486 0)
(0.988593 -0.002804 0)
(0.988723 0.0030183 0)
(0.989263 0.00267688 0)
(0.990807 0.00568188 0)
(0.995795 0.00614374 0)
(0.995412 0.00303601 0)
(0.992394 0.00437775 0)
(0.993161 0.00577594 0)
(0.996636 0.00502863 0)
(0.996436 0.00762686 0)
(0.998285 0.00947296 0)
(1.00028 0.0100675 0)
(1.00549 -0.00640069 0)
(0.991781 -0.0114513 0)
(0.980164 -0.00153063 0)
(0.995436 0.0140707 0)
(1.01555 -0.00331781 0)
(1.00733 -0.019541 0)
(0.988206 -0.0212299 0)
(0.982506 -0.00938489 0)
(0.988253 -0.00290344 0)
(0.988343 0.00279887 0)
(0.988874 0.00270755 0)
(0.990835 0.00542885 0)
(0.995876 0.00601995 0)
(0.995873 0.00314857 0)
(0.993109 0.00428364 0)
(0.993798 0.00573157 0)
(0.997102 0.00498746 0)
(0.99686 0.00738423 0)
(0.998343 0.0093986 0)
(1.00023 0.00989348 0)
(1.00511 -0.00624889 0)
(0.992199 -0.0112035 0)
(0.980619 -0.00159193 0)
(0.995551 0.013338 0)
(1.01482 -0.00325802 0)
(1.00715 -0.0191836 0)
(0.988326 -0.0205838 0)
(0.982619 -0.00931039 0)
(0.988077 -0.00301084 0)
(0.98828 0.00257392 0)
(0.988815 0.00271391 0)
(0.991199 0.00516399 0)
(0.996159 0.00586555 0)
(0.996426 0.00324241 0)
(0.993803 0.00419023 0)
(0.994364 0.00568564 0)
(0.997448 0.0049851 0)
(0.997162 0.0071626 0)
(0.998234 0.00931193 0)
(0.999964 0.00975517 0)
(1.00468 -0.00609019 0)
(0.992637 -0.0109611 0)
(0.980981 -0.00164744 0)
(0.99585 0.0125907 0)
(1.01419 -0.00319893 0)
(1.00697 -0.0188116 0)
(0.988488 -0.0199337 0)
(0.982861 -0.00921325 0)
(0.988039 -0.0031297 0)
(0.988402 0.00233922 0)
(0.988925 0.00269845 0)
(0.991698 0.00489054 0)
(0.99649 0.00568875 0)
(0.996942 0.00332446 0)
(0.994402 0.00410603 0)
(0.994826 0.00564013 0)
(0.997693 0.00501879 0)
(0.997412 0.00696954 0)
(0.998095 0.00922068 0)
(0.999645 0.00964882 0)
(1.00422 -0.00592437 0)
(0.99309 -0.0107239 0)
(0.981326 -0.00169523 0)
(0.996196 0.0118292 0)
(1.0136 -0.00314116 0)
(1.00677 -0.0184216 0)
(0.988701 -0.0192851 0)
(0.983214 -0.00909517 0)
(0.98812 -0.00325899 0)
(0.988619 0.00209142 0)
(0.989105 0.00266564 0)
(0.992202 0.00461386 0)
(0.996788 0.00549666 0)
(0.997357 0.003399 0)
(0.994885 0.00403637 0)
(0.995179 0.00559523 0)
(0.997858 0.00507866 0)
(0.997644 0.00680263 0)
(0.998003 0.00913417 0)
(0.999368 0.00958593 0)
(1.00377 -0.00575086 0)
(0.993524 -0.0104934 0)
(0.981707 -0.00173707 0)
(0.996504 0.0110584 0)
(1.01302 -0.00308712 0)
(1.00653 -0.0180118 0)
(0.98896 -0.0186424 0)
(0.983657 -0.00896067 0)
(0.9883 -0.0033945 0)
(0.98887 0.00182795 0)
(0.989304 0.0026168 0)
(0.992639 0.00433655 0)
(0.997021 0.00529147 0)
(0.997654 0.00346787 0)
(0.995263 0.00398199 0)
(0.995442 0.00554997 0)
(0.997972 0.00515797 0)
(0.997873 0.00665262 0)
(0.997993 0.00903596 0)
(0.999162 0.0095857 0)
(1.00337 -0.00557018 0)
(0.993903 -0.0102684 0)
(0.982156 -0.00177796 0)
(0.996735 0.0102824 0)
(1.01246 -0.00303862 0)
(1.00625 -0.0175822 0)
(0.989249 -0.0180094 0)
(0.984166 -0.00880986 0)
(0.988559 -0.00352707 0)
(0.989123 0.00155224 0)
(0.989499 0.00255082 0)
(0.992981 0.00406198 0)
(0.997189 0.0050733 0)
(0.997841 0.00352704 0)
(0.995558 0.00393899 0)
(0.99564 0.00549921 0)
(0.998059 0.00525318 0)
(0.998103 0.0065185 0)
(0.998076 0.00889165 0)
(0.999033 0.00962812 0)
(1.00305 -0.00538229 0)
(0.994209 -0.0100474 0)
(0.982671 -0.00181609 0)
(0.996882 0.00950588 0)
(1.01188 -0.00299985 0)
(1.00595 -0.0171334 0)
(0.989551 -0.0173892 0)
(0.984717 -0.00864559 0)
(0.988876 -0.00365611 0)
(0.989362 0.00127007 0)
(0.989683 0.00246916 0)
(0.993228 0.00379752 0)
(0.997306 0.00484949 0)
(0.997938 0.0035738 0)
(0.995795 0.00390322 0)
(0.995796 0.00543674 0)
(0.998138 0.00535929 0)
(0.998332 0.00641275 0)
(0.998245 0.00868945 0)
(0.998976 0.00964995 0)
(1.00281 -0.00518717 0)
(0.994446 -0.00982947 0)
(0.983236 -0.00185276 0)
(0.996953 0.0087358 0)
(1.0113 -0.0029727 0)
(1.00565 -0.0166703 0)
(0.989851 -0.0167807 0)
(0.985289 -0.00847198 0)
(0.989229 -0.00377696 0)
(0.989589 0.000988656 0)
(0.989855 0.0023777 0)
(0.993395 0.00354605 0)
(0.997386 0.00462593 0)
(0.997965 0.00361522 0)
(0.99599 0.00387662 0)
(0.995927 0.0053559 0)
(0.998218 0.00546163 0)
(0.998554 0.00635013 0)
(0.998477 0.00845446 0)
(0.998989 0.0095948 0)
(1.00264 -0.00498566 0)
(0.994641 -0.00961533 0)
(0.983823 -0.00189213 0)
(0.996969 0.00797418 0)
(1.0107 -0.00296218 0)
(1.00536 -0.0161882 0)
(0.990145 -0.0161851 0)
(0.985863 -0.00829748 0)
(0.989598 -0.00388893 0)
(0.989808 0.000705715 0)
(0.990014 0.00227624 0)
(0.993502 0.00330355 0)
(0.997446 0.00439745 0)
(0.997946 0.00365699 0)
(0.996153 0.00386525 0)
(0.996044 0.00525588 0)
(0.998302 0.00553484 0)
(0.998761 0.00632529 0)
(0.998742 0.00823492 0)
(0.99906 0.00945822 0)
(1.00252 -0.00477887 0)
(0.994824 -0.00940406 0)
(0.984411 -0.00193202 0)
(0.996954 0.00722615 0)
(1.01007 -0.00297054 0)
(1.00508 -0.0156927 0)
(0.990433 -0.0155993 0)
(0.986428 -0.00812243 0)
(0.989971 -0.00399228 0)
(0.990031 0.00042152 0)
(0.990165 0.00216259 0)
(0.993571 0.00306794 0)
(0.997492 0.00415654 0)
(0.997897 0.00369307 0)
(0.996284 0.0038699 0)
(0.996149 0.00515085 0)
(0.99839 0.00556976 0)
(0.998956 0.00630691 0)
(0.999012 0.00805766 0)
(0.999168 0.00928453 0)
(1.00242 -0.00456669 0)
(0.995022 -0.00919311 0)
(0.984991 -0.00197287 0)
(0.996928 0.00649589 0)
(1.00942 -0.00299457 0)
(1.0048 -0.015195 0)
(0.990721 -0.0150206 0)
(0.986978 -0.00794454 0)
(0.990342 -0.0040822 0)
(0.990268 0.000142472 0)
(0.990308 0.00204285 0)
(0.993617 0.00284521 0)
(0.997533 0.00390364 0)
(0.997835 0.00371662 0)
(0.996385 0.00388521 0)
(0.996242 0.00504969 0)
(0.998475 0.00558191 0)
(0.999139 0.00626791 0)
(0.999275 0.00789202 0)
(0.999293 0.00911233 0)
(1.00231 -0.00435222 0)
(0.995247 -0.00897939 0)
(0.985563 -0.00201781 0)
(0.996909 0.00578499 0)
(1.00875 -0.00304038 0)
(1.00451 -0.0146919 0)
(0.991014 -0.0144442 0)
(0.987508 -0.00775929 0)
(0.990708 -0.00416061 0)
(0.990526 -0.000133034 0)
(0.990448 0.00192354 0)
(0.993653 0.00264234 0)
(0.99757 0.0036438 0)
(0.997773 0.00372837 0)
(0.996457 0.00391488 0)
(0.996325 0.00494413 0)
(0.998551 0.00558365 0)
(0.999307 0.00622421 0)
(0.999529 0.00770139 0)
(0.999427 0.00893943 0)
(1.00218 -0.0041357 0)
(0.995499 -0.00876162 0)
(0.986131 -0.00206494 0)
(0.996905 0.00509489 0)
(1.00809 -0.00310223 0)
(1.00421 -0.0141898 0)
(0.991314 -0.0138772 0)
(0.988016 -0.0075668 0)
(0.991068 -0.0042295 0)
(0.990807 -0.000409263 0)
(0.990591 0.0018051 0)
(0.993685 0.00246028 0)
(0.997607 0.00337964 0)
(0.997722 0.00372528 0)
(0.996502 0.00396989 0)
(0.996399 0.00483141 0)
(0.998621 0.00556022 0)
(0.999455 0.00620648 0)
(0.999768 0.00749889 0)
(0.99957 0.00873733 0)
(1.00204 -0.00391791 0)
(0.995769 -0.00853963 0)
(0.986701 -0.00211435 0)
(0.996917 0.0044234 0)
(1.00744 -0.00316633 0)
(1.00388 -0.013691 0)
(0.99162 -0.0133328 0)
(0.988502 -0.00737245 0)
(0.99142 -0.00429117 0)
(0.99111 -0.000690425 0)
(0.990739 0.00168 0)
(0.993714 0.00229597 0)
(0.997645 0.00311145 0)
(0.997691 0.00369464 0)
(0.996524 0.00404802 0)
(0.99646 0.00472983 0)
(0.998692 0.00549061 0)
(0.999585 0.00620794 0)
(0.999982 0.00732493 0)
(0.999723 0.00848667 0)
(1.00189 -0.00369922 0)
(0.996048 -0.00831896 0)
(0.987273 -0.00215905 0)
(0.996946 0.00377214 0)
(1.0068 -0.00323372 0)
(1.00355 -0.0131991 0)
(0.99193 -0.0128019 0)
(0.988968 -0.00717613 0)
(0.991761 -0.00433636 0)
(0.991429 -0.000968092 0)
(0.990896 0.00154668 0)
(0.993742 0.00215647 0)
(0.997686 0.0028435 0)
(0.997688 0.00362539 0)
(0.996529 0.00413057 0)
(0.996501 0.00465813 0)
(0.998767 0.00537994 0)
(0.999709 0.00619156 0)
(1.00016 0.00720365 0)
(0.999873 0.00820939 0)
(1.00173 -0.00347913 0)
(0.996329 -0.00809974 0)
(0.987846 -0.00219833 0)
(0.996985 0.00313682 0)
(1.00618 -0.00331006 0)
(1.00321 -0.0127112 0)
(0.992242 -0.0122896 0)
(0.989414 -0.00697486 0)
(0.992086 -0.00436057 0)
(0.991759 -0.00124475 0)
(0.991064 0.00140031 0)
(0.993764 0.00205187 0)
(0.997726 0.00258908 0)
(0.997714 0.00351575 0)
(0.996529 0.00420084 0)
(0.996519 0.00461743 0)
(0.99884 0.0052506 0)
(0.999836 0.0061294 0)
(1.00031 0.00712071 0)
(1.00001 0.00794738 0)
(1.00157 -0.00325992 0)
(0.996608 -0.00788054 0)
(0.988416 -0.00223098 0)
(0.99703 0.00251436 0)
(1.00558 -0.00339145 0)
(1.00287 -0.0122265 0)
(0.992552 -0.0118012 0)
(0.989845 -0.00676511 0)
(0.992392 -0.00436016 0)
(0.992092 -0.00151622 0)
(0.991246 0.00123384 0)
(0.993779 0.00197713 0)
(0.997761 0.00236149 0)
(0.997769 0.00336885 0)
(0.996531 0.0042558 0)
(0.996511 0.00460557 0)
(0.998904 0.00512347 0)
(0.999972 0.00602313 0)
(1.00044 0.00705214 0)
(1.00011 0.00772961 0)
(1.00141 -0.00304043 0)
(0.996882 -0.00766808 0)
(0.988981 -0.0022499 0)
(0.997078 0.00190794 0)
(1.00499 -0.00347196 0)
(1.00253 -0.0117437 0)
(0.99286 -0.0113369 0)
(0.990263 -0.00656241 0)
(0.992678 -0.00434196 0)
(0.992423 -0.00177598 0)
(0.991443 0.0010427 0)
(0.993789 0.00191851 0)
(0.997784 0.00216523 0)
(0.99785 0.00318683 0)
(0.996543 0.00429066 0)
(0.996478 0.0046186 0)
(0.99895 0.0050042 0)
(1.00012 0.00587783 0)
(1.00056 0.00697963 0)
(1.00018 0.00756758 0)
(1.00126 -0.00282096 0)
(0.997151 -0.00746389 0)
(0.989537 -0.00225461 0)
(0.997125 0.00131885 0)
(1.00443 -0.00356623 0)
(1.0022 -0.011251 0)
(0.99316 -0.010907 0)
(0.990669 -0.00637216 0)
(0.992942 -0.0043026 0)
(0.992749 -0.0020214 0)
(0.991657 0.000824753 0)
(0.993796 0.00186734 0)
(0.997792 0.00200711 0)
(0.997954 0.00297823 0)
(0.996575 0.00429181 0)
(0.99642 0.00465415 0)
(0.998966 0.00489479 0)
(1.00027 0.00569114 0)
(1.00068 0.00687824 0)
(1.00022 0.00745964 0)
(1.00111 -0.00260282 0)
(0.997416 -0.0072662 0)
(0.990081 -0.00225222 0)
(0.997169 0.00076261 0)
(1.0039 -0.00367739 0)
(1.00187 -0.0107503 0)
(0.993453 -0.0105001 0)
(0.991067 -0.00619831 0)
(0.993184 -0.00423927 0)
(0.993065 -0.0022333 0)
(0.99189 0.000584072 0)
(0.993804 0.00181003 0)
(0.997779 0.0018893 0)
(0.998074 0.00275512 0)
(0.996634 0.00424455 0)
(0.996343 0.00471034 0)
(0.998941 0.00481534 0)
(1.00042 0.00547357 0)
(1.00082 0.00671847 0)
(1.00023 0.00738217 0)
(1.00096 -0.00238761 0)
(0.997678 -0.00707572 0)
(0.990615 -0.00224944 0)
(0.997207 0.000252996 0)
(1.00339 -0.00380358 0)
(1.00156 -0.0102423 0)
(0.993736 -0.0100941 0)
(0.991457 -0.0060445 0)
(0.993407 -0.0041581 0)
(0.993367 -0.00241472 0)
(0.992139 0.000329506 0)
(0.993819 0.00173231 0)
(0.997742 0.00180183 0)
(0.998203 0.00252476 0)
(0.996727 0.00414125 0)
(0.996259 0.0047757 0)
(0.998866 0.00478783 0)
(1.00055 0.00524984 0)
(1.00099 0.00648747 0)
(1.00025 0.00728901 0)
(1.00082 -0.00217597 0)
(0.997936 -0.00688946 0)
(0.991138 -0.00224985 0)
(0.99724 -0.000217709 0)
(1.00291 -0.00396061 0)
(1.00125 -0.00973687 0)
(0.994006 -0.00968512 0)
(0.991842 -0.00591313 0)
(0.993613 -0.00406889 0)
(0.993652 -0.00256715 0)
(0.992405 8.0744e-05 0)
(0.993846 0.0016354 0)
(0.997682 0.00173127 0)
(0.99833 0.0022924 0)
(0.996861 0.00397976 0)
(0.996185 0.00482763 0)
(0.99874 0.00481254 0)
(1.00064 0.00504653 0)
(1.00118 0.00619795 0)
(1.00028 0.00714214 0)
(1.00069 -0.00196928 0)
(0.998189 -0.00671031 0)
(0.991651 -0.00226244 0)
(0.997265 -0.00062213 0)
(1.00246 -0.00414554 0)
(1.00097 -0.00925802 0)
(0.994262 -0.00926966 0)
(0.992221 -0.00581109 0)
(0.993806 -0.003989 0)
(0.99392 -0.00268086 0)
(0.992685 -0.00015274 0)
(0.993889 0.00152881 0)
(0.997598 0.00167722 0)
(0.998445 0.0020707 0)
(0.997035 0.00376994 0)
(0.996138 0.00484622 0)
(0.998569 0.00487354 0)
(1.00066 0.00488279 0)
(1.00138 0.00587014 0)
(1.00037 0.00692263 0)
(1.00056 -0.00176899 0)
(0.998438 -0.00653196 0)
(0.992157 -0.00229153 0)
(0.997284 -0.000938501 0)
(1.00204 -0.00434415 0)
(1.00071 -0.00881855 0)
(0.994502 -0.00883422 0)
(0.992591 -0.00572005 0)
(0.993994 -0.00391572 0)
(0.994173 -0.00275663 0)
(0.992977 -0.000375651 0)
(0.993953 0.00141023 0)
(0.997494 0.00164011 0)
(0.998541 0.00186794 0)
(0.997248 0.0035172 0)
(0.996132 0.00481366 0)
(0.998363 0.00495447 0)
(1.00061 0.00477412 0)
(1.00157 0.00552813 0)
(1.0005 0.00662774 0)
(1.00045 -0.00158016 0)
(0.99868 -0.00634497 0)
(0.992659 -0.00234198 0)
(0.997296 -0.0011771 0)
(1.00165 -0.00453109 0)
(1.00048 -0.00844082 0)
(0.994728 -0.00837892 0)
(0.99295 -0.00561259 0)
(0.994179 -0.00385054 0)
(0.994412 -0.00280413 0)
(0.993279 -0.000573478 0)
(0.994045 0.00128329 0)
(0.997377 0.00161611 0)
(0.998607 0.00169559 0)
(0.99749 0.00322805 0)
(0.996182 0.00470933 0)
(0.998141 0.00503226 0)
(1.00048 0.00473047 0)
(1.00171 0.00520954 0)
(1.00069 0.00626492 0)
(1.00033 -0.00140406 0)
(0.998915 -0.0061441 0)
(0.993159 -0.00242489 0)
(0.997303 -0.00135225 0)
(1.00127 -0.0046873 0)
(1.00029 -0.00812664 0)
(0.994949 -0.00792458 0)
(0.993295 -0.00548456 0)
(0.994363 -0.00379857 0)
(0.994642 -0.00283788 0)
(0.993589 -0.000738622 0)
(0.994164 0.00115471 0)
(0.997254 0.00159815 0)
(0.998639 0.00156166 0)
(0.99775 0.00291989 0)
(0.996297 0.00452288 0)
(0.997931 0.00506534 0)
(1.00026 0.00473994 0)
(1.00178 0.00495638 0)
(1.00091 0.00585631 0)
(1.00023 -0.00124236 0)
(0.999139 -0.00592419 0)
(0.993659 -0.00253706 0)
(0.99731 -0.00148483 0)
(1.00092 -0.0047886 0)
(1.00014 -0.007877 0)
(0.995169 -0.00748276 0)
(0.993623 -0.00532207 0)
(0.994543 -0.00374841 0)
(0.994869 -0.00285151 0)
(0.993907 -0.000885186 0)
(0.994311 0.00102311 0)
(0.997134 0.0015847 0)
(0.998634 0.00147199 0)
(0.99801 0.00261588 0)
(0.996478 0.00426295 0)
(0.997761 0.00501785 0)
(0.999997 0.0047613 0)
(1.00175 0.00478665 0)
(1.00113 0.00544761 0)
(1.00014 -0.00110073 0)
(0.99935 -0.00568411 0)
(0.994157 -0.00267233 0)
(0.997322 -0.0015916 0)
(1.00057 -0.00480205 0)
(1.00002 -0.00768885 0)
(0.995401 -0.00707341 0)
(0.993936 -0.00511232 0)
(0.994719 -0.00367698 0)
(0.995093 -0.00284507 0)
(0.994233 -0.00101904 0)
(0.994487 0.000871561 0)
(0.997025 0.00156158 0)
(0.998594 0.00141926 0)
(0.998255 0.00233473 0)
(0.996714 0.00394829 0)
(0.997648 0.00489128 0)
(0.999712 0.0047518 0)
(1.00163 0.00468307 0)
(1.00129 0.00509944 0)
(1.00005 -0.000975747 0)
(0.999545 -0.00542351 0)
(0.994653 -0.00283517 0)
(0.997347 -0.00168617 0)
(1.00023 -0.00472434 0)
(0.99993 -0.00751907 0)
(0.995653 -0.00672102 0)
(0.994241 -0.0048745 0)
(0.994887 -0.00358156 0)
(0.99531 -0.00284195 0)
(0.994563 -0.0011382 0)
(0.994694 0.000700593 0)
(0.996936 0.00152689 0)
(0.998523 0.0014001 0)
(0.998473 0.00209399 0)
(0.996995 0.00359457 0)
(0.997605 0.00469903 0)
(0.999438 0.00469322 0)
(1.00144 0.00459981 0)
(1.00137 0.00483652 0)
(0.999974 -0.000873541 0)
(0.999721 -0.00513944 0)
(0.995143 -0.00301037 0)
(0.997394 -0.00178166 0)
(0.999902 -0.00457227 0)
(0.99986 -0.00734399 0)
(0.995931 -0.00644023 0)
(0.994544 -0.00461645 0)
(0.995041 -0.00344311 0)
(0.995519 -0.00282027 0)
(0.994897 -0.00125403 0)
(0.994934 0.000511154 0)
(0.99688 0.00146828 0)
(0.998428 0.00140802 0)
(0.998646 0.0019114 0)
(0.997305 0.00322598 0)
(0.997637 0.00444515 0)
(0.999197 0.00459307 0)
(1.00122 0.00450459 0)
(1.00137 0.0046404 0)
(0.999906 -0.000792241 0)
(0.999877 -0.00483548 0)
(0.995623 -0.00318771 0)
(0.99747 -0.00189335 0)
(0.999578 -0.00436174 0)
(0.999796 -0.00712774 0)
(0.996237 -0.00623595 0)
(0.99486 -0.00438111 0)
(0.995183 -0.00325573 0)
(0.995709 -0.00275927 0)
(0.995225 -0.00135906 0)
(0.995207 0.000308759 0)
(0.996869 0.00137053 0)
(0.998328 0.00142084 0)
(0.998768 0.00178974 0)
(0.997621 0.00288106 0)
(0.997746 0.00413516 0)
(0.999004 0.00445166 0)
(1.00098 0.00438926 0)
(1.00131 0.0044708 0)
(0.999847 -0.000732621 0)
(1.00001 -0.00451066 0)
(0.996087 -0.00334798 0)
(0.99758 -0.00203861 0)
(0.999271 -0.00413075 0)
(0.999724 -0.00684912 0)
(0.996557 -0.00609038 0)
(0.995201 -0.00419494 0)
(0.995325 -0.00302971 0)
(0.995878 -0.00265288 0)
(0.99554 -0.00143366 0)
(0.995504 0.00010136 0)
(0.996909 0.00124224 0)
(0.998239 0.00141846 0)
(0.998842 0.00172011 0)
(0.997916 0.00259462 0)
(0.997916 0.00379432 0)
(0.998874 0.00426381 0)
(1.00075 0.00426194 0)
(1.00121 0.00430413 0)
(0.999796 -0.000694136 0)
(1.00012 -0.00418659 0)
(0.996525 -0.00347667 0)
(0.997722 -0.00220852 0)
(0.99899 -0.00387816 0)
(0.999637 -0.00650042 0)
(0.996883 -0.0059704 0)
(0.995578 -0.00408606 0)
(0.995474 -0.00280262 0)
(0.99602 -0.00249352 0)
(0.995828 -0.00146921 0)
(0.995817 -0.000102598 0)
(0.997004 0.00108307 0)
(0.998179 0.00138273 0)
(0.998885 0.00167383 0)
(0.998174 0.00236805 0)
(0.998125 0.00345625 0)
(0.998814 0.00402599 0)
(1.00055 0.00411948 0)
(1.00109 0.00413037 0)
(0.999752 -0.000661805 0)
(1.0002 -0.00385874 0)
(0.996934 -0.0035842 0)
(0.9979 -0.00244478 0)
(0.998744 -0.00363694 0)
(0.999528 -0.00608294 0)
(0.997188 -0.00579473 0)
(0.995988 -0.00404138 0)
(0.995654 -0.00259281 0)
(0.996143 -0.00227932 0)
(0.996079 -0.00144837 0)
(0.996129 -0.000274462 0)
(0.997143 0.000901911 0)
(0.998157 0.00132103 0)
(0.998911 0.00163529 0)
(0.998393 0.00219139 0)
(0.998347 0.00315686 0)
(0.99882 0.00376444 0)
(1.00037 0.00396211 0)
(1.00096 0.00396911 0)
(0.999718 -0.000657085 0)
(1.00026 -0.00353813 0)
(0.997293 -0.00358029 0)
(0.99811 -0.0026792 0)
(0.998557 -0.00344804 0)
(0.999413 -0.00567484 0)
(0.997461 -0.00559705 0)
(0.996419 -0.00406419 0)
(0.995876 -0.00245376 0)
(0.996253 -0.00205731 0)
(0.996286 -0.00137669 0)
(0.996424 -0.000416559 0)
(0.997321 0.000696511 0)
(0.998182 0.00122026 0)
(0.998934 0.00158397 0)
(0.998579 0.00204055 0)
(0.99857 0.00289076 0)
(0.998877 0.00349105 0)
(1.00024 0.00376521 0)
(1.00083 0.00380267 0)
(0.999687 -0.000643169 0)
(1.00031 -0.0032854 0)
(0.997611 -0.00357183 0)
(0.998326 -0.00288583 0)
(0.998408 -0.00323631 0)
(0.999283 -0.00519647 0)
(0.997687 -0.00530085 0)
(0.996858 -0.00409023 0)
(0.996152 -0.00239834 0)
(0.996375 -0.00184836 0)
(0.996451 -0.00124695 0)
(0.996683 -0.000502454 0)
(0.997519 0.000505004 0)
(0.998255 0.0010879 0)
(0.998966 0.00152658 0)
(0.998736 0.00192095 0)
(0.998781 0.00266229 0)
(0.998965 0.00323193 0)
(1.00016 0.0035456 0)
(1.0007 0.0036245 0)
(0.999661 -0.00063336 0)
(1.00033 -0.00304075 0)
(0.997888 -0.0035357 0)
(0.99858 -0.00312351 0)
(0.998335 -0.00311244 0)
(0.999159 -0.00474013 0)
(0.997847 -0.00492902 0)
(0.997264 -0.00407889 0)
(0.996473 -0.00243206 0)
(0.996525 -0.00169548 0)
(0.996582 -0.00109308 0)
(0.996899 -0.000534734 0)
(0.997719 0.000343359 0)
(0.998373 0.000921374 0)
(0.999026 0.00143572 0)
(0.998875 0.00180831 0)
(0.998977 0.00245211 0)
(0.999071 0.00298146 0)
(1.00011 0.00331402 0)
(1.00061 0.00341691 0)
(0.999641 -0.000620566 0)
(1.00036 -0.00283786 0)
(0.998109 -0.00340916 0)
(0.998822 -0.00330016 0)
(0.998321 -0.00302571 0)
(0.999067 -0.00430665 0)
(0.99797 -0.00452675 0)
(0.99763 -0.00399816 0)
(0.996833 -0.00251242 0)
(0.996732 -0.00162305 0)
(0.996704 -0.000931885 0)
(0.99707 -0.000506731 0)
(0.997899 0.000228014 0)
(0.998514 0.000757345 0)
(0.999118 0.00131254 0)
(0.999008 0.00169374 0)
(0.999156 0.00226729 0)
(0.99919 0.00275164 0)
(1.00009 0.00310079 0)
(1.00055 0.00319791 0)
(0.99962 -0.000604752 0)
(1.00037 -0.00264497 0)
(0.998299 -0.00318587 0)
(0.99907 -0.00338467 0)
(0.998371 -0.00300607 0)
(0.998993 -0.00396464 0)
(0.998032 -0.00415513 0)
(0.997919 -0.00386574 0)
(0.997184 -0.00258406 0)
(0.996986 -0.00164019 0)
(0.996834 -0.000807142 0)
(0.997196 -0.000438035 0)
(0.998044 0.000158418 0)
(0.998658 0.000614947 0)
(0.999232 0.00117116 0)
(0.999144 0.00155883 0)
(0.999323 0.00209298 0)
(0.999318 0.00252957 0)
(1.00008 0.00290086 0)
(1.00049 0.00298653 0)
(0.999604 -0.000584548 0)
(1.00039 -0.0024515 0)
(0.998443 -0.00296643 0)
(0.999255 -0.00343373 0)
(0.998439 -0.00305145 0)
(0.998959 -0.00370875 0)
(0.998082 -0.00378243 0)
(0.998157 -0.00366457 0)
(0.997518 -0.0026017 0)
(0.997282 -0.00170959 0)
(0.997 -0.000746262 0)
(0.997297 -0.000354644 0)
(0.998147 0.000138724 0)
(0.998787 0.000493329 0)
(0.999353 0.00102848 0)
(0.999285 0.0014074 0)
(0.999478 0.00191936 0)
(0.999453 0.00230706 0)
(1.00009 0.00269371 0)
(1.00043 0.00279261 0)
(0.999589 -0.000542443 0)
(1.0004 -0.00230585 0)
(0.998558 -0.00276946 0)
(0.999432 -0.00338849 0)
(0.998557 -0.00305236 0)
(0.998976 -0.00349055 0)
(0.998115 -0.00342358 0)
(0.998325 -0.00342222 0)
(0.997797 -0.00255991 0)
(0.997589 -0.00177977 0)
(0.997205 -0.000752772 0)
(0.997395 -0.000287138 0)
(0.998204 0.000163035 0)
(0.998886 0.000407025 0)
(0.999472 0.000897609 0)
(0.999427 0.00126184 0)
(0.999624 0.00175565 0)
(0.999585 0.00210446 0)
(1.00012 0.00248148 0)