/*--------------------------------*- C++ -*----------------------------------*\
| =========                 |                                                 |
| \\      /  F ield         | OpenFOAM: The Open Source CFD Toolbox           |
|  \\    /   O peration     | Version:  2506                                  |
|   \\  /    A nd           | Website:  www.openfoam.com                      |
|    \\/     M anipulation  |                                                 |
\*---------------------------------------------------------------------------*/
FoamFile
{
    version     2.0;
    format      ascii;
    arch        "LSB;label=32;scalar=64";
    class       surfaceScalarField;
    location    "3.95";
    object      phi;
}
// * * * * * * * * * * * * * * * * * * * * * * * * * * * * * * * * * * * * * //

dimensions      [0 3 -1 0 0 0 0];

oriented        oriented;

internalField   nonuniform List<scalar> 
19000
(
1.1799e-06
7.05522e-07
1.10626e-06
-6.4007e-07
1.24098e-06
5.83708e-07
1.14956e-06
9.93769e-07
1.04706e-06
-6.0104e-07
1.1595e-06
-6.21285e-10
1.19962e-06
4.29917e-07
1.12946e-06
2.92256e-07
1.16352e-06
6.25982e-07
1.12935e-06
2.78585e-07
1.13606e-06
3.74657e-07
1.13433e-06
6.51302e-07
1.11295e-06
2.06028e-07
1.12853e-06
1.30858e-07
1.13843e-06
-1.20461e-07
1.14074e-06
-2.15382e-09
1.14706e-06
1.80805e-08
1.13607e-06
6.67897e-08
1.13871e-06
8.68269e-08
8.53628e-08
1.11062e-06
1.23271e-06
6.97072e-07
1.15524e-06
-5.62594e-07
1.29819e-06
4.4075e-07
1.21481e-06
1.07715e-06
1.11052e-06
-4.96752e-07
1.21817e-06
-1.08268e-07
1.25718e-06
3.90904e-07
1.18697e-06
3.62466e-07
1.21907e-06
5.93886e-07
1.18935e-06
3.08307e-07
1.18621e-06
3.77793e-07
1.20263e-06
6.34882e-07
1.17007e-06
2.38587e-07
1.19377e-06
1.07159e-07
1.19319e-06
-1.19879e-07
1.20883e-06
-1.77882e-08
1.19662e-06
3.02909e-08
1.20801e-06
5.53957e-08
1.18212e-06
1.12718e-07
7.21397e-08
1.19534e-06
1.28879e-06
6.91064e-07
1.20715e-06
-4.8095e-07
1.34983e-06
2.98067e-07
1.29341e-06
1.13357e-06
1.18239e-06
-3.85729e-07
1.27725e-06
-2.03128e-07
1.31759e-06
3.50563e-07
1.25738e-06
4.2267e-07
1.27654e-06
5.74734e-07
1.26056e-06
3.24282e-07
1.2406e-06
3.97755e-07
1.2728e-06
6.02683e-07
1.23354e-06
2.77841e-07
1.25655e-06
8.41541e-08
1.25059e-06
-1.13926e-07
1.26771e-06
-3.49012e-08
1.25621e-06
4.17936e-08
1.26266e-06
4.89378e-08
1.24854e-06
1.26844e-07
7.88756e-08
1.2418e-06
1.34841e-06
6.86753e-07
1.26526e-06
-3.97796e-07
1.39899e-06
1.64337e-07
1.38127e-06
1.15129e-06
1.26193e-06
-2.66391e-07
1.33618e-06
-2.77382e-07
1.37785e-06
3.08901e-07
1.33548e-06
4.65037e-07
1.33824e-06
5.71972e-07
1.33482e-06
3.27708e-07
1.30291e-06
4.29664e-07
1.33553e-06
5.70055e-07
1.3044e-06
3.08978e-07
1.31598e-06
7.25757e-08
1.31191e-06
-1.09858e-07
1.32305e-06
-4.60453e-08
1.319e-06
4.58497e-08
1.31992e-06
4.80167e-08
1.31308e-06
1.33681e-07
9.03865e-08
1.30157e-06
1.41189e-06
6.83214e-07
1.33228e-06
-3.18185e-07
1.44677e-06
4.98466e-08
1.47026e-06
1.12781e-06
1.34639e-06
-1.4252e-07
1.39388e-06
-3.24879e-07
1.43651e-06
2.66274e-07
1.41439e-06
4.87156e-07
1.40364e-06
5.82721e-07
1.40471e-06
3.26641e-07
1.37302e-06
4.61352e-07
1.39584e-06
5.47239e-07
1.37913e-06
3.25681e-07
1.38021e-06
7.14957e-08
1.37635e-06
-1.05992e-07
1.38336e-06
-5.30581e-08
1.3831e-06
4.6111e-08
1.38345e-06
4.76644e-08
1.37892e-06
1.38216e-07
1.02187e-07
1.36712e-06
1.47931e-06
6.79584e-07
1.40895e-06
-2.4783e-07
1.49564e-06
-3.68445e-08
1.55196e-06
1.07149e-06
1.43375e-06
-2.43126e-08
1.45226e-06
-3.43384e-07
1.49424e-06
2.24296e-07
1.48961e-06
4.91779e-07
1.4722e-06
6.00137e-07
1.47068e-06
3.28163e-07
1.44688e-06
4.85146e-07
1.4599e-06
5.34217e-07
1.45468e-06
3.30901e-07
1.45135e-06
7.48305e-08
1.44496e-06
-9.96031e-08
1.44907e-06
-5.71701e-08
1.45024e-06
4.49384e-08
1.45108e-06
4.68308e-08
1.44876e-06
1.40535e-07
1.13891e-07
1.43705e-06
1.55073e-06
6.75075e-07
1.49358e-06
-1.90686e-07
1.54895e-06
-9.22099e-08
1.62365e-06
9.96787e-07
1.52298e-06
7.63559e-08
1.51505e-06
-3.35449e-07
1.55318e-06
1.86162e-07
1.56104e-06
4.8392e-07
1.54373e-06
6.17444e-07
1.53761e-06
3.34283e-07
1.52134e-06
5.01418e-07
1.5292e-06
5.2636e-07
1.53102e-06
3.29081e-07
1.52773e-06
7.81237e-08
1.51898e-06
-9.08621e-08
1.5199e-06
-5.80852e-08
1.52119e-06
4.36476e-08
1.52202e-06
4.60047e-08
1.52201e-06
1.40543e-07
1.24791e-07
1.51111e-06
1.62613e-06
6.69071e-07
1.58322e-06
-1.47776e-07
1.60977e-06
-1.18759e-07
1.68879e-06
9.17774e-07
1.61297e-06
1.52173e-07
1.5853e-06
-3.07778e-07
1.61598e-06
1.55479e-07
1.63118e-06
4.68724e-07
1.6183e-06
6.30317e-07
1.60961e-06
3.42977e-07
1.59707e-06
5.13957e-07
1.60342e-06
5.20006e-07
1.60966e-06
3.22844e-07
1.60806e-06
7.97249e-08
1.59842e-06
-8.12208e-08
1.59623e-06
-5.59027e-08
1.59664e-06
4.32426e-08
1.59662e-06
4.60271e-08
1.5984e-06
1.38765e-07
1.3434e-07
1.58885e-06
1.7053e-06
6.61344e-07
1.67528e-06
-1.17756e-07
1.67977e-06
-1.23252e-07
1.75318e-06
8.44373e-07
1.70234e-06
2.03012e-07
1.66391e-06
-2.6935e-07
1.68512e-06
1.3427e-07
1.70322e-06
4.50621e-07
1.69619e-06
6.37349e-07
1.68797e-06
3.51199e-07
1.67668e-06
5.25246e-07
1.68289e-06
5.1379e-07
1.69197e-06
3.13767e-07
1.69197e-06
7.97278e-08
1.68257e-06
-7.18241e-08
1.67802e-06
-5.13569e-08
1.67726e-06
4.40029e-08
1.67567e-06
4.76243e-08
1.67834e-06
1.36097e-07
1.42482e-07
1.67019e-06
1.7879e-06
6.52165e-07
1.76836e-06
-9.82113e-08
1.7588e-06
-1.137e-07
1.82144e-06
7.81738e-07
1.79042e-06
2.34029e-07
1.74986e-06
-2.2879e-07
1.76217e-06
1.21963e-07
1.77993e-06
4.32856e-07
1.77787e-06
6.39415e-07
1.77197e-06
3.57094e-07
1.76183e-06
5.35386e-07
1.76806e-06
5.07564e-07
1.77864e-06
3.03185e-07
1.77937e-06
7.89982e-08
1.77073e-06
-6.31868e-08
1.76465e-06
-4.52691e-08
1.76305e-06
4.56003e-08
1.75965e-06
5.1025e-08
1.76226e-06
1.33481e-07
1.49453e-07
1.75529e-06
1.87375e-06
6.42161e-07
1.86219e-06
-8.66507e-08
1.8455e-06
-9.70037e-08
1.89593e-06
7.31307e-07
1.878e-06
2.51955e-07
1.84143e-06
-1.92218e-07
1.84728e-06
1.16111e-07
1.86293e-06
4.17209e-07
1.8639e-06
6.38441e-07
1.86051e-06
3.60487e-07
1.85256e-06
5.4333e-07
1.85871e-06
5.01415e-07
1.86973e-06
2.92165e-07
1.87021e-06
7.8524e-08
1.8624e-06
-5.53821e-08
1.85538e-06
-3.82454e-08
1.85339e-06
4.75851e-08
1.84848e-06
5.59413e-08
1.85033e-06
1.31628e-07
1.55496e-07
1.84429e-06
1.96301e-06
6.31995e-07
1.95725e-06
-8.09002e-08
1.93822e-06
-7.79651e-08
1.97732e-06
6.92205e-07
1.96687e-06
2.62406e-07
1.93717e-06
-1.62525e-07
1.93935e-06
1.13931e-07
1.9524e-06
4.04163e-07
1.95467e-06
6.36168e-07
1.953e-06
3.62163e-07
1.94816e-06
5.48163e-07
1.95418e-06
4.95403e-07
1.96496e-06
2.81381e-07
1.96443e-06
7.9056e-08
1.9573e-06
-4.82564e-08
1.94973e-06
-3.06737e-08
1.94763e-06
4.96862e-08
1.94178e-06
6.17952e-08
1.94249e-06
1.30919e-07
1.60724e-07
1.93726e-06
2.05608e-06
6.22102e-07
2.05429e-06
-7.91087e-08
2.03568e-06
-5.93518e-08
2.06556e-06
6.62325e-07
2.05894e-06
2.69027e-07
2.03634e-06
-1.39924e-07
2.03686e-06
1.13402e-07
2.0476e-06
3.93424e-07
2.05028e-06
6.3349e-07
2.04945e-06
3.62989e-07
2.04805e-06
5.49565e-07
2.05383e-06
4.89622e-07
2.06404e-06
2.71171e-07
2.06207e-06
8.10293e-08
2.05537e-06
-4.15559e-08
2.04752e-06
-2.28244e-08
2.04533e-06
5.18771e-08
2.03918e-06
6.79446e-08
2.03867e-06
1.31424e-07
1.65159e-07
2.03424e-06
2.15351e-06
6.12596e-07
2.15406e-06
-7.96652e-08
2.13713e-06
-4.24193e-08
2.1604e-06
6.39058e-07
2.15563e-06
2.73793e-07
2.13871e-06
-1.23e-07
2.13861e-06
1.13506e-07
2.1476e-06
3.84434e-07
2.15058e-06
6.30504e-07
2.15007e-06
3.63497e-07
2.15195e-06
5.47684e-07
2.15736e-06
4.84215e-07
2.16687e-06
2.61666e-07
2.16329e-06
8.46032e-08
2.15672e-06
-3.49794e-08
2.14882e-06
-1.49307e-08
2.14636e-06
5.43405e-08
2.14048e-06
7.3827e-08
2.13893e-06
1.32971e-07
1.68838e-07
2.13525e-06
2.25575e-06
6.03335e-07
2.25727e-06
-8.11893e-08
2.24234e-06
-2.74869e-08
2.26156e-06
6.19837e-07
2.25775e-06
2.77607e-07
2.24444e-06
-1.09691e-07
2.24403e-06
1.13916e-07
2.25179e-06
3.76675e-07
2.25538e-06
6.2691e-07
2.25498e-06
3.63897e-07
2.25977e-06
5.42895e-07
2.26468e-06
4.79303e-07
2.2735e-06
2.5285e-07
2.26841e-06
8.96945e-08
2.26164e-06
-2.821e-08
2.25391e-06
-7.20375e-09
2.25088e-06
5.73711e-08
2.24566e-06
7.90496e-08
2.24339e-06
1.35236e-07
1.71886e-07
2.24035e-06
2.36316e-06
5.94053e-07
2.36456e-06
-8.25911e-08
2.35147e-06
-1.44018e-08
2.36876e-06
6.02553e-07
2.36559e-06
2.8077e-07
2.3539e-06
-9.80008e-08
2.35321e-06
1.14607e-07
2.36008e-06
3.69808e-07
2.36461e-06
6.22381e-07
2.36427e-06
3.64236e-07
2.37153e-06
5.35637e-07
2.37591e-06
4.74922e-07
2.38415e-06
2.44607e-07
2.37783e-06
9.60126e-08
2.37055e-06
-2.09268e-08
2.3632e-06
1.4827e-10
2.35932e-06
6.12442e-08
2.35491e-06
8.34627e-08
2.35233e-06
1.37813e-07
1.74496e-07
2.34972e-06
2.47598e-06
5.84472e-07
2.47651e-06
-8.31199e-08
2.46496e-06
-2.852e-09
2.48172e-06
5.85786e-07
2.47924e-06
2.83255e-07
2.46762e-06
-8.63881e-08
2.46664e-06
1.15592e-07
2.47276e-06
3.63692e-07
2.4784e-06
6.16735e-07
2.47812e-06
3.64513e-07
2.48742e-06
5.26338e-07
2.49132e-06
4.7103e-07
2.49912e-06
2.36799e-07
2.49203e-06
1.03107e-07
2.48393e-06
-1.28289e-08
2.47713e-06
6.9508e-09
2.47229e-06
6.60842e-08
2.46855e-06
8.71975e-08
2.46611e-06
1.40261e-07
1.76873e-07
2.46373e-06
2.59441e-06
5.74356e-07
2.59364e-06
-8.23471e-08
2.58333e-06
7.45737e-09
2.6003e-06
5.68816e-07
2.59867e-06
2.84881e-07
2.58615e-06
-7.38669e-08
2.58492e-06
1.16819e-07
2.59031e-06
3.58304e-07
2.59709e-06
6.09957e-07
2.59688e-06
3.6472e-07
2.60783e-06
5.15389e-07
2.61134e-06
4.67524e-07
2.61878e-06
2.29352e-07
2.61144e-06
1.10451e-07
2.60228e-06
-3.67048e-09
2.59614e-06
1.30884e-08
2.59041e-06
7.18142e-08
2.58699e-06
9.0623e-08
2.5851e-06
1.42154e-07
1.79143e-07
2.58282e-06
2.71865e-06
5.63538e-07
2.71639e-06
-8.00894e-08
2.70712e-06
1.67227e-08
2.72447e-06
5.51467e-07
2.72393e-06
2.85424e-07
2.70998e-06
-5.99169e-08
2.70865e-06
1.18154e-07
2.7133e-06
3.5365e-07
2.72112e-06
6.02139e-07
2.72098e-06
3.64862e-07
2.73322e-06
5.03149e-07
2.73647e-06
4.64272e-07
2.74351e-06
2.22312e-07
2.73645e-06
1.17507e-07
2.72608e-06
6.7019e-09
2.72062e-06
1.8547e-08
2.71427e-06
7.81661e-08
2.71067e-06
9.42228e-08
2.70967e-06
1.43158e-07
1.81323e-07
2.70749e-06
2.8489e-06
5.51907e-07
2.84512e-06
-7.63106e-08
2.83683e-06
2.50164e-08
2.85438e-06
5.33913e-07
2.85512e-06
2.84683e-07
2.83954e-06
-4.43374e-08
2.83828e-06
1.19419e-07
2.84224e-06
3.49692e-07
2.85094e-06
5.93436e-07
2.85087e-06
3.64934e-07
2.86405e-06
4.89963e-07
2.86721e-06
4.61116e-07
2.87369e-06
2.15834e-07
2.86739e-06
1.23807e-07
2.85577e-06
1.83173e-08
2.85087e-06
2.34449e-08
2.8443e-06
8.47415e-08
2.84009e-06
9.8427e-08
2.8401e-06
1.43153e-07
1.83271e-07
2.83815e-06
2.9854e-06
5.39398e-07
2.98013e-06
-7.10401e-08
2.97285e-06
3.22966e-08
2.99026e-06
5.16505e-07
2.99243e-06
2.82511e-07
2.97522e-06
-2.71265e-08
2.9742e-06
1.20441e-07
2.97756e-06
3.4633e-07
2.98697e-06
5.84032e-07
2.98699e-06
3.64909e-07
3.00079e-06
4.76165e-07
3.00401e-06
4.57895e-07
3.00971e-06
2.10133e-07
3.00451e-06
1.29006e-07
2.99178e-06
3.10532e-08
2.98718e-06
2.8043e-08
2.98085e-06
9.1073e-08
2.97575e-06
1.03522e-07
2.97662e-06
1.42286e-07
1.84697e-07
2.97519e-06
3.12843e-06
5.25978e-07
3.12171e-06
-6.43188e-08
3.11556e-06
3.84404e-08
3.13242e-06
4.99644e-07
3.1361e-06
2.7883e-07
3.11738e-06
-8.40145e-09
3.11673e-06
1.21094e-07
3.11964e-06
3.43414e-07
3.12953e-06
5.7414e-07
3.12973e-06
3.64713e-07
3.14383e-06
4.6206e-07
3.14727e-06
4.54455e-07
3.15199e-06
2.05421e-07
3.14807e-06
1.32921e-07
3.13445e-06
4.46756e-08
3.12981e-06
3.268e-08
3.12417e-06
9.67199e-08
3.11811e-06
1.09581e-07
3.11944e-06
1.4095e-07
1.85214e-07
3.11893e-06
3.27826e-06
5.11627e-07
3.27011e-06
-5.61723e-08
3.26527e-06
4.32862e-08
3.28122e-06
4.83697e-07
3.28641e-06
2.73632e-07
3.26637e-06
1.16446e-08
3.26614e-06
1.21325e-07
3.2688e-06
3.40754e-07
3.27894e-06
5.63997e-07
3.27942e-06
3.64234e-07
3.29358e-06
4.47902e-07
3.29735e-06
4.50677e-07
3.30092e-06
2.01852e-07
3.29831e-06
1.35535e-07
3.28412e-06
5.8866e-08
3.27909e-06
3.77095e-08
3.27446e-06
1.01349e-07
3.26758e-06
1.16463e-07
3.26884e-06
1.39689e-07
1.84447e-07
3.26961e-06
3.43523e-06
4.96333e-07
3.42566e-06
-4.66033e-08
3.42227e-06
4.66748e-08
3.43701e-06
4.68951e-07
3.44368e-06
2.66964e-07
3.42255e-06
3.27767e-08
3.42271e-06
1.21169e-07
3.42534e-06
3.38124e-07
3.43547e-06
5.53861e-07
3.43637e-06
3.6334e-07
3.45039e-06
4.33881e-07
3.45458e-06
4.46487e-07
3.45693e-06
1.995e-07
3.4555e-06
1.36968e-07
3.44109e-06
7.32702e-08
3.43538e-06
4.34264e-08
3.4319e-06
1.04831e-07
3.42454e-06
1.23816e-07
3.42516e-06
1.39067e-07
1.82188e-07
3.42742e-06
3.59966e-06
4.80082e-07
3.58866e-06
-3.55999e-08
3.58685e-06
4.84795e-08
3.60021e-06
4.55599e-07
3.60826e-06
2.58908e-07
3.5863e-06
5.47344e-08
3.58672e-06
1.20755e-07
3.58958e-06
3.35265e-07
3.59945e-06
5.43991e-07
3.60087e-06
3.61919e-07
3.61465e-06
4.20095e-07
3.61925e-06
4.41888e-07
3.62041e-06
1.98345e-07
3.61995e-06
1.37427e-07
3.6057e-06
8.75202e-08
3.59905e-06
5.00799e-08
3.59669e-06
1.07185e-07
3.58932e-06
1.31188e-07
3.58885e-06
1.39535e-07
1.78489e-07
3.59255e-06
3.77192e-06
4.62865e-07
3.75947e-06
-2.31499e-08
3.75933e-06
4.86238e-08
3.7712e-06
4.43731e-07
3.78051e-06
2.49594e-07
3.75803e-06
7.72174e-08
3.75847e-06
1.2031e-07
3.76185e-06
3.31885e-07
3.77121e-06
5.3463e-07
3.77322e-06
3.59913e-07
3.78677e-06
4.06544e-07
3.79171e-06
4.36947e-07
3.79173e-06
1.98323e-07
3.79204e-06
1.3712e-07
3.77826e-06
1.01299e-07
3.7705e-06
5.78361e-08
3.76913e-06
1.0856e-07
3.76223e-06
1.38092e-07
3.76038e-06
1.41381e-07
1.737e-07
3.76517e-06
3.95238e-06
4.44677e-07
3.93848e-06
-9.25737e-09
3.94002e-06
4.70897e-08
3.9504e-06
4.33348e-07
3.96079e-06
2.39203e-07
3.93814e-06
9.98665e-08
3.93831e-06
1.20142e-07
3.94252e-06
3.27678e-07
3.95119e-06
5.25956e-07
3.95373e-06
3.57371e-07
3.96714e-06
3.93135e-07
3.97233e-06
4.31761e-07
3.97127e-06
1.99377e-07
3.97218e-06
1.36219e-07
3.95911e-06
1.14367e-07
3.95018e-06
6.67606e-08
3.94955e-06
1.09193e-07
3.94357e-06
1.44068e-07
3.94029e-06
1.44668e-07
1.68479e-07
3.94551e-06
4.1414e-06
4.25523e-07
4.1261e-06
6.04529e-09
4.12927e-06
4.3918e-08
4.13826e-06
4.24359e-07
4.14947e-06
2.27993e-07
4.12709e-06
1.22249e-07
4.1266e-06
1.20631e-07
4.13194e-06
3.22336e-07
4.13983e-06
5.18062e-07
4.14275e-06
3.54458e-07
4.15617e-06
3.7971e-07
4.16153e-06
4.26401e-07
4.1594e-06
2.01514e-07
4.16078e-06
1.34834e-07
4.14861e-06
1.2654e-07
4.13852e-06
7.68517e-08
4.1383e-06
1.09408e-07
4.13366e-06
1.48713e-07
4.12915e-06
1.4918e-07
1.6372e-07
4.1339e-06
4.3394e-06
4.05424e-07
4.32276e-06
2.26902e-08
4.32746e-06
3.92109e-08
4.33523e-06
4.16591e-07
4.34692e-06
2.16303e-07
4.32531e-06
1.43857e-07
4.32372e-06
1.22225e-07
4.33048e-06
3.15576e-07
4.33762e-06
5.10922e-07
4.34063e-06
3.51445e-07
4.35425e-06
3.66094e-07
4.35979e-06
4.20857e-07
4.35648e-06
2.04824e-07
4.35828e-06
1.33032e-07
4.34717e-06
1.37652e-07
4.33599e-06
8.80309e-08
4.33581e-06
1.09595e-07
4.33273e-06
1.5179e-07
4.32755e-06
1.54361e-07
1.60335e-07
4.33093e-06
4.54678e-06
3.84418e-07
4.5289e-06
4.0571e-08
4.53498e-06
3.31327e-08
4.54179e-06
4.09777e-07
4.55354e-06
2.04559e-07
4.53328e-06
1.64108e-07
4.5301e-06
1.25413e-07
4.53848e-06
3.0719e-07
4.54506e-06
5.04346e-07
4.54781e-06
3.4869e-07
4.56174e-06
3.52166e-07
4.5676e-06
4.15e-07
4.56297e-06
2.09451e-07
4.56506e-06
1.30942e-07
4.55529e-06
1.47428e-07
4.5431e-06
1.00223e-07
4.5425e-06
1.10185e-07
4.5411e-06
1.53194e-07
4.53593e-06
1.59527e-07
1.58893e-07
4.53738e-06
4.76397e-06
3.62564e-07
4.745e-06
5.95411e-08
4.75221e-06
2.59198e-08
4.75844e-06
4.03546e-07
4.76973e-06
1.93274e-07
4.75147e-06
1.82361e-07
4.74623e-06
1.30657e-07
4.75629e-06
2.97136e-07
4.76266e-06
4.97969e-07
4.76476e-06
3.46588e-07
4.77903e-06
3.37896e-07
4.78542e-06
4.08612e-07
4.77938e-06
2.15493e-07
4.78149e-06
1.28828e-07
4.77341e-06
1.55517e-07
4.76034e-06
1.13285e-07
4.75895e-06
1.11579e-07
4.75908e-06
1.53065e-07
4.75466e-06
1.63942e-07
1.59424e-07
4.75413e-06
4.99142e-06
3.39945e-07
4.97155e-06
7.94093e-08
4.97958e-06
1.78854e-08
4.9857e-06
3.97433e-07
4.99594e-06
1.83026e-07
4.98038e-06
1.97925e-07
4.97272e-06
1.38316e-07
4.98425e-06
2.8561e-07
4.99093e-06
4.9129e-07
4.99202e-06
3.45493e-07
5.00653e-06
3.23385e-07
5.01371e-06
4.01433e-07
5.00627e-06
2.22936e-07
5.00799e-06
1.27105e-07
5.00197e-06
1.61535e-07
4.98826e-06
1.26994e-07
4.98575e-06
1.14089e-07
4.98708e-06
1.51732e-07
4.98395e-06
1.6707e-07
1.61388e-07
4.98199e-06
5.22959e-06
3.16669e-07
5.20907e-06
9.99334e-08
5.21752e-06
9.43714e-09
5.22408e-06
3.90867e-07
5.23268e-06
1.74433e-07
5.22049e-06
2.10105e-07
5.21024e-06
1.48569e-07
5.22276e-06
2.73091e-07
5.23032e-06
4.83733e-07
5.23017e-06
3.45638e-07
5.24466e-06
3.08902e-07
5.25292e-06
3.93172e-07
5.24419e-06
2.31661e-07
5.24504e-06
1.26255e-07
5.24136e-06
1.6522e-07
5.22742e-06
1.40932e-07
5.2235e-06
1.18007e-07
5.22566e-06
1.49579e-07
5.22403e-06
1.68693e-07
1.63953e-07
5.22147e-06
5.47899e-06
2.9287e-07
5.45811e-06
1.20816e-07
5.46647e-06
1.07075e-09
5.47413e-06
3.83206e-07
5.48045e-06
1.68111e-07
5.47217e-06
2.18394e-07
5.45951e-06
1.61221e-07
5.47228e-06
2.60327e-07
5.48128e-06
4.74731e-07
5.47985e-06
3.47073e-07
5.49389e-06
2.94854e-07
5.50349e-06
3.83577e-07
5.49375e-06
2.41403e-07
5.49322e-06
1.26785e-07
5.49195e-06
1.66485e-07
5.47837e-06
1.5451e-07
5.4728e-06
1.2358e-07
5.47545e-06
1.46934e-07
5.47519e-06
1.68946e-07
1.66288e-07
5.47286e-06
5.74011e-06
2.68716e-07
5.71923e-06
1.41693e-07
5.72692e-06
-6.61571e-09
5.73638e-06
3.73744e-07
5.7399e-06
1.64592e-07
5.73564e-06
2.22654e-07
5.72125e-06
1.75614e-07
5.73337e-06
2.48208e-07
5.74422e-06
4.6388e-07
5.74167e-06
3.4962e-07
5.75479e-06
2.81731e-07
5.76586e-06
3.72514e-07
5.75552e-06
2.51742e-07
5.75311e-06
1.29197e-07
5.7541e-06
1.65494e-07
5.74167e-06
1.66937e-07
5.73429e-06
1.30959e-07
5.73697e-06
1.44249e-07
5.73807e-06
1.67853e-07
1.67982e-07
5.73637e-06
6.01351e-06
2.44403e-07
5.99306e-06
1.6214e-07
5.99938e-06
-1.2937e-08
6.01136e-06
3.61762e-07
6.01176e-06
1.64198e-07
6.01117e-06
2.23244e-07
5.99614e-06
1.90638e-07
6.00673e-06
2.37623e-07
6.01954e-06
4.51067e-07
6.01628e-06
3.52885e-07
6.02795e-06
2.70052e-07
6.04047e-06
3.59994e-07
6.03009e-06
2.62125e-07
6.02537e-06
1.3392e-07
6.02825e-06
1.62614e-07
6.01776e-06
1.77422e-07
6.00866e-06
1.40066e-07
6.01084e-06
1.42065e-07
6.01324e-06
1.65454e-07
1.68856e-07
6.01237e-06
6.29973e-06
2.2016e-07
6.2802e-06
1.81674e-07
6.28443e-06
-1.71655e-08
6.29957e-06
3.46623e-07
6.29679e-06
1.66973e-07
6.29908e-06
2.20951e-07
6.28474e-06
2.04985e-07
6.2931e-06
2.29261e-07
6.30769e-06
4.36481e-07
6.30423e-06
3.56338e-07
6.31403e-06
2.60257e-07
6.32777e-06
3.46249e-07
6.31797e-06
2.71927e-07
6.31083e-06
1.41059e-07
6.31492e-06
1.58524e-07
6.30707e-06
1.85279e-07
6.29666e-06
1.50472e-07
6.29765e-06
1.41074e-07
6.30134e-06
1.61761e-07
1.6884e-07
6.30136e-06
6.59939e-06
1.96244e-07
6.5813e-06
1.99762e-07
6.58274e-06
-1.86088e-08
6.60146e-06
3.27904e-07
6.59579e-06
1.72647e-07
6.5999e-06
2.16835e-07
6.58734e-06
2.17543e-07
6.59312e-06
2.23488e-07
6.60899e-06
4.2061e-07
6.60597e-06
3.59356e-07
6.61362e-06
2.52609e-07
6.6282e-06
3.31665e-07
6.61966e-06
2.80465e-07
6.61029e-06
1.50429e-07
6.61472e-06
1.54093e-07
6.60996e-06
1.90044e-07
6.59902e-06
1.6141e-07
6.59821e-06
1.41882e-07
6.60285e-06
1.57125e-07
1.67646e-07
6.60404e-06
6.9131e-06
1.72937e-07
6.89703e-06
2.15827e-07
6.89508e-06
-1.66576e-08
6.91742e-06
3.0556e-07
6.90947e-06
1.80601e-07
6.91417e-06
2.12132e-07
6.90413e-06
2.27591e-07
6.9072e-06
2.20411e-07
6.92382e-06
4.03988e-07
6.92186e-06
3.61319e-07
6.9273e-06
2.47169e-07
6.9423e-06
3.16668e-07
6.93564e-06
2.87126e-07
6.92451e-06
1.61553e-07
6.92838e-06
1.50229e-07
6.92687e-06
1.91553e-07
6.91634e-06
1.71938e-07
6.91342e-06
1.44798e-07
6.91832e-06
1.52227e-07
1.64952e-07
6.92101e-06
7.24153e-06
1.5054e-07
7.22809e-06
2.29275e-07
7.22231e-06
-1.08841e-08
7.24788e-06
2.79989e-07
7.23844e-06
1.90039e-07
7.24259e-06
2.07988e-07
7.23579e-06
2.34387e-07
7.23647e-06
2.19734e-07
7.25312e-06
3.87343e-07
7.25251e-06
3.61928e-07
7.25582e-06
2.43857e-07
7.27082e-06
3.0167e-07
7.26641e-06
2.91536e-07
7.25418e-06
1.73781e-07
7.25677e-06
1.4764e-07
7.25828e-06
1.90043e-07
7.2491e-06
1.81117e-07
7.24426e-06
1.49639e-07
7.24846e-06
1.48026e-07
1.60643e-07
7.25277e-06
7.58541e-06
1.2936e-07
7.57518e-06
2.39505e-07
7.56541e-06
-1.12144e-09
7.59357e-06
2.51833e-07
7.5836e-06
2.00005e-07
7.58615e-06
2.05446e-07
7.58284e-06
2.37688e-07
7.58189e-06
2.20691e-07
7.5978e-06
3.71434e-07
7.59856e-06
3.61168e-07
7.60005e-06
2.42363e-07
7.61466e-06
2.87061e-07
7.61265e-06
2.93544e-07
7.60001e-06
1.86421e-07
7.60081e-06
1.46845e-07
7.60479e-06
1.86059e-07
7.59773e-06
1.88178e-07
7.59153e-06
1.55833e-07
7.59426e-06
1.45298e-07
1.55166e-07
7.59974e-06
7.94548e-06
1.09691e-07
7.93904e-06
2.45949e-07
7.92545e-06
1.24675e-08
7.9551e-06
2.22175e-07
7.94631e-06
2.08805e-07
7.94659e-06
2.05162e-07
7.94663e-06
2.37649e-07
7.94504e-06
2.22276e-07
7.9588e-06
3.57677e-07
7.96062e-06
3.59348e-07
7.96078e-06
2.42202e-07
7.97476e-06
2.73078e-07
7.97513e-06
2.93176e-07
7.96269e-06
1.98867e-07
7.96141e-06
1.48117e-07
7.9671e-06
1.80371e-07
7.96274e-06
1.92541e-07
7.95594e-06
1.62628e-07
7.95684e-06
1.44397e-07
1.49387e-07
7.96262e-06
8.32257e-06
9.1804e-08
8.3204e-06
2.48119e-07
8.30348e-06
2.93857e-08
8.33308e-06
1.92576e-07
8.32781e-06
2.14073e-07
8.32633e-06
2.06643e-07
8.32793e-06
2.36054e-07
8.32482e-06
2.25383e-07
8.33633e-06
3.46166e-07
8.3395e-06
3.56183e-07
8.33888e-06
2.42818e-07
8.35201e-06
2.59945e-07
8.35465e-06
2.90543e-07
8.34295e-06
2.10566e-07
8.33955e-06
1.5151e-07
8.34602e-06
1.73906e-07
8.34468e-06
1.93884e-07
8.33808e-06
1.69224e-07
8.33723e-06
1.45252e-07
1.44179e-07
8.34243e-06
8.71752e-06
7.59494e-08
8.72e-06
2.45632e-07
8.70045e-06
4.8935e-08
8.72873e-06
1.64297e-07
8.72633e-06
2.16471e-07
8.71751e-06
2.15468e-07
8.72003e-06
2.33529e-07
8.72047e-06
2.24947e-07
8.73193e-06
3.34704e-07
8.73619e-06
3.51921e-07
8.73508e-06
2.43933e-07
8.7472e-06
2.47825e-07
8.75198e-06
2.85765e-07
8.74166e-06
2.20888e-07
8.73635e-06
1.56818e-07
8.74257e-06
1.67685e-07
8.74423e-06
1.92227e-07
8.73864e-06
1.74814e-07
8.73639e-06
1.47502e-07
1.40194e-07
8.74037e-06
9.13126e-06
6.23135e-08
9.13857e-06
2.38316e-07
9.11692e-06
7.05909e-08
9.1408e-06
1.40417e-07
9.14223e-06
2.1504e-07
9.13239e-06
2.25308e-07
9.13443e-06
2.3149e-07
9.13659e-06
2.22785e-07
9.14732e-06
3.2397e-07
9.15193e-06
3.47314e-07
9.15023e-06
2.45631e-07
9.16118e-06
2.36873e-07
9.16798e-06
2.78968e-07
9.1595e-06
2.29369e-07
9.15274e-06
1.63577e-07
9.15777e-06
1.62648e-07
9.16199e-06
1.88007e-07
9.15815e-06
1.78658e-07
9.15508e-06
1.5057e-07
1.37689e-07
9.15759e-06
9.56477e-06
5.10046e-08
9.57661e-06
2.26473e-07
9.55401e-06
9.31898e-08
9.57299e-06
1.21438e-07
9.57987e-06
2.08161e-07
9.56903e-06
2.36146e-07
9.56844e-06
2.32086e-07
9.57194e-06
2.19286e-07
9.58295e-06
3.12961e-07
9.58777e-06
3.42487e-07
9.58537e-06
2.48029e-07
9.59481e-06
2.2744e-07
9.60347e-06
2.70308e-07
9.59728e-06
2.35556e-07
9.58973e-06
1.71132e-07
9.59297e-06
1.59404e-07
9.59893e-06
1.82046e-07
9.5973e-06
1.80284e-07
9.59408e-06
1.53799e-07
1.36573e-07
9.59519e-06
1.00191e-05
4.20435e-08
1.00349e-05
2.10672e-07
1.00128e-05
1.15317e-07
1.0026e-05
1.0824e-07
1.0038e-05
1.96103e-07
1.00277e-05
2.46476e-07
1.00238e-05
2.36001e-07
1.00273e-05
2.15724e-07
1.00393e-05
3.01028e-07
1.00448e-05
3.36915e-07
1.00417e-05
2.51171e-07
1.00492e-05
2.19905e-07
1.00594e-05
2.60191e-07
1.00558e-05
2.39165e-07
1.00481e-05
1.78751e-07
1.00494e-05
1.58107e-07
1.00561e-05
1.75359e-07
1.00568e-05
1.79562e-07
1.00541e-05
1.56545e-07
1.36485e-07
1.00542e-05
1.04953e-05
3.53435e-08
1.05143e-05
1.91758e-07
1.04941e-05
1.35506e-07
1.05011e-05
1.01253e-07
1.05172e-05
1.79995e-07
1.05091e-05
2.54527e-07
1.0502e-05
2.43142e-07
1.05041e-05
2.13569e-07
1.0517e-05
2.88116e-07
1.05239e-05
3.30033e-07
1.05205e-05
2.54593e-07
1.05258e-05
2.14622e-07
1.05367e-05
2.49275e-07
1.05358e-05
2.40069e-07
1.05288e-05
1.85751e-07
1.05283e-05
1.58557e-07
1.05349e-05
1.68844e-07
1.05377e-05
1.76727e-07
1.05359e-05
1.58319e-07
1.36958e-07
1.05354e-05
1.09947e-05
3.07066e-08
1.10156e-05
1.70826e-07
1.09988e-05
1.52313e-07
1.09996e-05
1.0042e-07
1.10177e-05
1.61937e-07
1.10138e-05
2.58437e-07
1.10042e-05
2.52697e-07
1.10038e-05
2.13935e-07
1.10171e-05
2.74812e-07
1.10258e-05
3.21373e-07
1.10227e-05
2.57679e-07
1.10257e-05
2.11624e-07
1.10367e-05
2.38319e-07
1.10383e-05
2.38421e-07
1.10325e-05
1.91524e-07
1.10308e-05
1.6033e-07
1.10364e-05
1.63195e-07
1.10409e-05
1.72241e-07
1.10404e-05
1.58835e-07
1.37533e-07
1.10398e-05
1.15182e-05
2.78273e-08
1.154e-05
1.49063e-07
1.15278e-05
1.64565e-07
1.1523e-05
1.0515e-07
1.15406e-05
1.44408e-07
1.1542e-05
2.57013e-07
1.15315e-05
2.63214e-07
1.15281e-05
2.17264e-07
1.15408e-05
2.62135e-07
1.15514e-05
3.10805e-07
1.15493e-05
2.59789e-07
1.15503e-05
2.10551e-07
1.15606e-05
2.28101e-07
1.15644e-05
2.34589e-07
1.15602e-05
1.95667e-07
1.15578e-05
1.62816e-07
1.15621e-05
1.58818e-07
1.15677e-05
1.66694e-07
1.15686e-05
1.5795e-07
1.37884e-07
1.15682e-05
1.20673e-05
2.63177e-08
1.20888e-05
1.27613e-07
1.20817e-05
1.71596e-07
1.20724e-05
1.14536e-07
1.20869e-05
1.29919e-07
1.20941e-05
2.49723e-07
1.20846e-05
2.72784e-07
1.20785e-05
2.23322e-07
1.20895e-05
2.51176e-07
1.21016e-05
2.98715e-07
1.21011e-05
2.60244e-07
1.21008e-05
2.10875e-07
1.21097e-05
2.19181e-07
1.21152e-05
2.29065e-07
1.21129e-05
1.98007e-07
1.21103e-05
1.65377e-07
1.21134e-05
1.55778e-07
1.21193e-05
1.60796e-07
1.21216e-05
1.55614e-07
1.37802e-07
1.21217e-05
1.26432e-05
2.57403e-08
1.26629e-05
1.07923e-07
1.26608e-05
1.73614e-07
1.26486e-05
1.26803e-07
1.2658e-05
1.20507e-07
1.2671e-05
2.36756e-07
1.26644e-05
2.79294e-07
1.26563e-05
2.31461e-07
1.26646e-05
2.42832e-07
1.26776e-05
2.85749e-07
1.26792e-05
2.58675e-07
1.26781e-05
2.11914e-07
1.26855e-05
2.11799e-07
1.26921e-05
2.2245e-07
1.26916e-05
1.98539e-07
1.26895e-05
1.6752e-07
1.26914e-05
1.53817e-07
1.2697e-05
1.55209e-07
1.27006e-05
1.51984e-07
1.37043e-07
1.27014e-05
1.3247e-05
2.56564e-08
1.32632e-05
9.1725e-08
1.32659e-05
1.70934e-07
1.32529e-05
1.39821e-07
1.32563e-05
1.17038e-07
1.32732e-05
2.19879e-07
1.32717e-05
2.80772e-07
1.32626e-05
2.40566e-07
1.3268e-05
2.3749e-07
1.32809e-05
2.72783e-07
1.32845e-05
2.55083e-07
1.32836e-05
2.12896e-07
1.32894e-05
2.05973e-07
1.32965e-05
2.15329e-07
1.32977e-05
1.97395e-07
1.32963e-05
1.68915e-07
1.32975e-05
1.52525e-07
1.33025e-05
1.50291e-07
1.33069e-05
1.47511e-07
1.35385e-07
1.33086e-05
1.38802e-05
2.56443e-08
1.38934e-05
7.85379e-08
1.38995e-05
1.64786e-07
1.3887e-05
1.52344e-07
1.38845e-05
1.19538e-07
1.39021e-05
2.023e-07
1.3907e-05
2.75879e-07
1.38986e-05
2.48887e-07
1.39011e-05
2.35054e-07
1.39131e-05
2.60807e-07
1.39184e-05
2.49706e-07
1.39181e-05
2.13206e-07
1.39227e-05
2.01425e-07
1.39298e-05
2.08215e-07
1.39324e-05
1.9481e-07
1.39319e-05
1.69375e-07
1.39329e-05
1.51517e-07
1.39371e-05
1.46055e-07
1.39419e-05
1.42758e-07
1.32769e-07
1.39445e-05
1.45439e-05
2.54483e-08
1.4553e-05
6.94019e-08
1.45621e-05
1.55663e-07
1.45522e-05
1.62309e-07
1.45448e-05
1.26884e-07
1.45598e-05
1.87358e-07
1.45708e-05
2.64845e-07
1.45653e-05
2.54342e-07
1.45653e-05
2.35038e-07
1.45756e-05
2.50593e-07
1.45823e-05
2.42984e-07
1.4583e-05
2.12531e-07
1.45867e-05
1.97682e-07
1.45935e-05
2.01422e-07
1.45972e-05
1.91126e-07
1.45977e-05
1.68821e-07
1.45988e-05
1.50485e-07
1.46025e-05
1.42367e-07
1.46072e-05
1.38057e-07
1.29425e-07
1.46105e-05
1.52394e-05
2.49193e-08
1.52453e-05
6.34782e-08
1.52557e-05
1.45303e-07
1.52493e-05
1.68725e-07
1.52394e-05
1.36738e-07
1.52494e-05
1.77398e-07
1.52645e-05
2.49765e-07
1.52634e-05
2.55402e-07
1.52621e-05
2.36291e-07
1.52703e-05
2.42455e-07
1.52776e-05
2.35674e-07
1.52795e-05
2.10645e-07
1.52828e-05
1.94387e-07
1.52892e-05
1.95013e-07
1.52936e-05
1.86716e-07
1.52952e-05
1.67249e-07
1.52964e-05
1.49205e-07
1.52997e-05
1.39084e-07
1.53043e-05
1.33508e-07
1.25697e-07
1.5308e-05
1.59682e-05
2.40384e-08
1.59714e-05
6.02532e-08
1.59819e-05
1.34792e-07
1.59793e-05
1.71415e-07
1.5969e-05
1.46948e-07
1.59739e-05
1.72503e-07
1.599e-05
2.33757e-07
1.59936e-05
2.51716e-07
1.59928e-05
2.37157e-07
1.59989e-05
2.36338e-07
1.6006e-05
2.28528e-07
1.60091e-05
2.07548e-07
1.60123e-05
1.91234e-07
1.60184e-05
1.88945e-07
1.60233e-05
1.81806e-07
1.60257e-05
1.64796e-07
1.60275e-05
1.4746e-07
1.60304e-05
1.36102e-07
1.60348e-05
1.29129e-07
1.21786e-07
1.60387e-05
1.67317e-05
2.29094e-08
1.67325e-05
5.95336e-08
1.67424e-05
1.24839e-07
1.67433e-05
1.70472e-07
1.67344e-05
1.55924e-07
1.67355e-05
1.71422e-07
1.67497e-05
2.19522e-07
1.67574e-05
2.44011e-07
1.67583e-05
2.36218e-07
1.67629e-05
2.31764e-07
1.67695e-05
2.21946e-07
1.67734e-05
2.03628e-07
1.67768e-05
1.87815e-07
1.67825e-05
1.83285e-07
1.67878e-05
1.76496e-07
1.67909e-05
1.61645e-07
1.67932e-05
1.45158e-07
1.67961e-05
1.33231e-07
1.68003e-05
1.24985e-07
1.17711e-07
1.68043e-05
1.75316e-05
2.16664e-08
1.75315e-05
5.95893e-08
1.75396e-05
1.1678e-07
1.75432e-05
1.66915e-07
1.75364e-05
1.62684e-07
1.75352e-05
1.72642e-07
1.75464e-05
2.0835e-07
1.75565e-05
2.3388e-07
1.75599e-05
2.3282e-07
1.75639e-05
2.27772e-07
1.75697e-05
2.16079e-07
1.75741e-05
1.99316e-07
1.75779e-05
1.83956e-07
1.75833e-05
1.77894e-07
1.75888e-05
1.7097e-07
1.75926e-05
1.57885e-07
1.75954e-05
1.42337e-07
1.75984e-05
1.30254e-07
1.76023e-05
1.21097e-07
1.13534e-07
1.76065e-05
1.83696e-05
2.04603e-08
1.83692e-05
5.99566e-08
1.83754e-05
1.10605e-07
1.83806e-05
1.61713e-07
1.83764e-05
1.66828e-07
1.83743e-05
1.74807e-07
1.83824e-05
2.00172e-07
1.83931e-05
2.23216e-07
1.83989e-05
2.27052e-07
1.84033e-05
2.23341e-07
1.84085e-05
2.10903e-07
1.8413e-05
1.94781e-07
1.84171e-05
1.79851e-07
1.84225e-05
1.7249e-07
1.84281e-05
1.6537e-07
1.84324e-05
1.53627e-07
1.84357e-05
1.39035e-07
1.84389e-05
1.27021e-07
1.84426e-05
1.17436e-07
1.09339e-07
1.84468e-05
1.92475e-05
1.93987e-08
1.92472e-05
6.01876e-08
1.92517e-05
1.06092e-07
1.92576e-05
1.55874e-07
1.9256e-05
1.68438e-07
1.92539e-05
1.76846e-07
1.92598e-05
1.94277e-07
1.92696e-05
2.13412e-07
1.92772e-05
2.1952e-07
1.92826e-05
2.17895e-07
1.92875e-05
2.06024e-07
1.92921e-05
1.9018e-07
1.92963e-05
1.75587e-07
1.93017e-05
1.67102e-07
1.93075e-05
1.59605e-07
1.93122e-05
1.48974e-07
1.93159e-05