/*--------------------------------*- C++ -*----------------------------------*\
| =========                 |                                                 |
| \\      /  F ield         | OpenFOAM: The Open Source CFD Toolbox           |
|  \\    /   O peration     | Version:  2506                                  |
|   \\  /    A nd           | Website:  www.openfoam.com                      |
|    \\/     M anipulation  |                                                 |
\*---------------------------------------------------------------------------*/
FoamFile
{
    version     2.0;
    format      ascii;
    arch        "LSB;label=32;scalar=64";
    class       volScalarField;
    location    "7.35";
    object      p;
}
// * * * * * * * * * * * * * * * * * * * * * * * * * * * * * * * * * * * * * //

dimensions      [0 2 -2 0 0 0 0];

internalField   nonuniform List<scalar> 
9600
(
-1.62741e-09
-0.00428812
-0.00114394
0.000173361
4.42011e-05
-0.000322578
-0.00392779
-0.00647569
-0.00458846
-0.00366795
-0.00571611
-0.00633838
-0.00409873
-0.00542901
-0.00497034
-0.00641853
-0.00607261
-0.00629792
-0.00681689
-0.00623529
1.34447e-06
-0.0042892
-0.00114316
0.000159361
5.46479e-05
-0.000347827
-0.00391304
-0.00644705
-0.00460065
-0.00364614
-0.00570941
-0.00635316
-0.00409244
-0.00546844
-0.00495982
-0.00648111
-0.00607129
-0.00641245
-0.0068034
-0.00655794
2.97716e-06
-0.00429052
-0.0011437
0.000141984
6.81161e-05
-0.000384775
-0.00387764
-0.00639836
-0.00462066
-0.0036354
-0.00571011
-0.00638006
-0.00408768
-0.00551392
-0.00495928
-0.00655993
-0.00608393
-0.00653028
-0.00680307
-0.0069211
3.31338e-06
-0.00429229
-0.00114479
0.00012182
6.91557e-05
-0.000436563
-0.00383687
-0.00634318
-0.00465531
-0.00363639
-0.00571216
-0.00641627
-0.00409038
-0.00556482
-0.00497586
-0.00663803
-0.00610789
-0.00662766
-0.00683078
-0.00723896
2.05214e-06
-0.00429433
-0.00114578
9.64597e-05
5.66794e-05
-0.000502872
-0.00379144
-0.00628518
-0.00470626
-0.00364474
-0.00571034
-0.00645962
-0.00409692
-0.0056208
-0.00499484
-0.00671743
-0.00612918
-0.00672072
-0.00688389
-0.00749182
-7.42212e-07
-0.00429644
-0.00114661
6.44911e-05
3.35837e-05
-0.000581873
-0.00374288
-0.00622663
-0.00477091
-0.00365582
-0.00570561
-0.00650526
-0.00410444
-0.00567804
-0.00501287
-0.00679755
-0.00614668
-0.00681498
-0.00695345
-0.00770601
-5.05319e-06
-0.00429843
-0.00114715
2.54782e-05
1.58774e-06
-0.000670179
-0.00369262
-0.00616935
-0.00484396
-0.00366773
-0.00570069
-0.00654879
-0.00411137
-0.00573512
-0.00503309
-0.00687642
-0.00616909
-0.00690418
-0.00704384
-0.00789642
-1.08477e-05
-0.00430013
-0.0011472
-2.0543e-05
-3.77757e-05
-0.000764222
-0.00364201
-0.00611346
-0.00492014
-0.00368005
-0.00569696
-0.00658923
-0.00411635
-0.00579352
-0.00505664
-0.00695341
-0.0062017
-0.00698346
-0.00716294
-0.00806621
-1.80148e-05
-0.00430139
-0.00114671
-7.31376e-05
-8.27457e-05
-0.000861402
-0.0035917
-0.00605796
-0.00499614
-0.00369243
-0.00569465
-0.00662774
-0.00411947
-0.00585491
-0.00508399
-0.00702637
-0.00624671
-0.00705
-0.00731216
-0.00821753
-2.6397e-05
-0.0043022
-0.00114579
-0.000131567
-0.000131811
-0.000960103
-0.00354181
-0.00600192
-0.00507074
-0.00370446
-0.00569348
-0.00666612
-0.00412206
-0.00591928
-0.00511642
-0.00709202
-0.00630674
-0.00710279
-0.00748926
-0.00835705
-3.5839e-05
-0.00430273
-0.00114471
-0.000194996
-0.000183858
-0.00105938
-0.00349247
-0.00594493
-0.00514412
-0.00371594
-0.0056933
-0.00670564
-0.00412498
-0.00598508
-0.00515596
-0.0071473
-0.00638512
-0.00714288
-0.00769064
-0.00849417
-4.62123e-05
-0.00430327
-0.00114387
-0.000262658
-0.000238072
-0.00115874
-0.00344405
-0.00588695
-0.00521703
-0.00372682
-0.00569421
-0.0067469
-0.00412862
-0.00605032
-0.00520495
-0.00719052
-0.00648442
-0.00717292
-0.00791083
-0.00863806
-5.74253e-05
-0.00430427
-0.00114377
-0.00033392
-0.0002939
-0.00125797
-0.00339708
-0.00582797
-0.00529031
-0.00373737
-0.00569633
-0.00679069
-0.00413381
-0.0061129
-0.00526603
-0.00722125
-0.00660544
-0.00719684
-0.00814224
-0.00879654
-6.94248e-05
-0.00430615
-0.00114492
-0.000408211
-0.000351062
-0.00135709
-0.00335219
-0.00576795
-0.00536459
-0.00374795
-0.00569976
-0.00683859
-0.00414202
-0.0061706
-0.00534216
-0.00723962
-0.00674723
-0.0072201
-0.00837596
-0.00897506
-8.21935e-05
-0.00430916
-0.00114776
-0.00048491
-0.000409524
-0.00145636
-0.00331015
-0.00570692
-0.00544024
-0.00375887
-0.00570464
-0.00689247
-0.00415484
-0.00622127
-0.00543617
-0.00724653
-0.00690718
-0.0072495
-0.00860352
-0.00917592
-9.57505e-05
-0.00431332
-0.00115265
-0.00056331
-0.000469428
-0.00155616
-0.00327182
-0.00564489
-0.00551752
-0.00377044
-0.00571104
-0.00695336
-0.0041738
-0.00626316
-0.00554978
-0.00724424
-0.0070812
-0.0072924
-0.00881797
-0.0093988
-0.000110153
-0.00431844
-0.00115985
-0.000642708
-0.00053105
-0.00165681
-0.00323795
-0.00558189
-0.00559679
-0.00378285
-0.00571883
-0.007021
-0.00420033
-0.00629516
-0.00568295
-0.00723658
-0.00726472
-0.0073554
-0.00901383
-0.00964089
-0.000125499
-0.00432422
-0.0011696
-0.000722528
-0.000594761
-0.00175834
-0.00320927
-0.00551789
-0.00567851
-0.00379628
-0.00572748
-0.00709448
-0.00423548
-0.00631678
-0.00583413
-0.00722856
-0.00745365
-0.00744268
-0.00918661
-0.00989769
-0.000141936
-0.00433034
-0.00118212
-0.000802394
-0.000661003
-0.00186048
-0.00318648
-0.00545267
-0.00576291
-0.00381113
-0.00573618
-0.00717306
-0.00427986
-0.00632811
-0.00600109
-0.00722436
-0.00764371
-0.00755652
-0.00933415
-0.0101639
-0.000159652
-0.00433652
-0.00119769
-0.00088211
-0.000730279
-0.00196268
-0.00317031
-0.00538597
-0.00584976
-0.00382806
-0.00574415
-0.0072563
-0.00433359
-0.00633032
-0.00618165
-0.00722682
-0.00783037
-0.00769816
-0.00945755
-0.0104336
-0.000178852
-0.00434254
-0.00121662
-0.000961539
-0.000803159
-0.00206427
-0.00316147
-0.00531771
-0.00593869
-0.00384651
-0.00575042
-0.00734427
-0.00439677
-0.00632477
-0.00637358
-0.00723899
-0.00801055
-0.00786759
-0.00955939
-0.0106988
-0.000199757
-0.00434822
-0.0012393
-0.00104052
-0.000880237
-0.00216459
-0.00316057
-0.00524801
-0.00602938
-0.00386839
-0.00575346
-0.00743771
-0.00446989
-0.00631188
-0.00657508
-0.0072636
-0.00818201
-0.00806472
-0.00964312
-0.0109493
-0.000222594
-0.00435338
-0.00126616
-0.00111883
-0.000962107
-0.00226302
-0.00316824
-0.00517703
-0.00612124
-0.00389696
-0.00575172
-0.00753752
-0.00455364
-0.00629135
-0.0067848
-0.0073032
-0.00834173
-0.00828884
-0.00971457
-0.0111742
-0.000247598
-0.00435787
-0.00129768
-0.00119616
-0.00104942
-0.002359
-0.0031852
-0.00510498
-0.00621311
-0.00393353
-0.00574375
-0.00764402
-0.00464967
-0.00626273
-0.00700113
-0.00736094
-0.00848558
-0.00853799
-0.00978273
-0.0113618
-0.000275011
-0.00436153
-0.0013344
-0.00127215
-0.00114278
-0.00245213
-0.00321197
-0.00503229
-0.00630373
-0.00398022
-0.00572794
-0.0077565
-0.00476009
-0.00622555
-0.00722259
-0.00744084
-0.00860891
-0.00880836
-0.00985988
-0.0115016
-0.000305084
-0.00436421
-0.00137687
-0.00134647
-0.00124271
-0.00254211
-0.00324881
-0.0049598
-0.00639181
-0.00403908
-0.00570299
-0.00787377
-0.00488739
-0.00617934
-0.00744673
-0.00754817
-0.00870802
-0.00909293
-0.00996103
-0.011589
-0.000338082
-0.00436576
-0.00142568
-0.00141867
-0.00134984
-0.00262873
-0.0032958
-0.00488868
-0.00647551
-0.00411249
-0.00566864
-0.00799374
-0.005035
-0.00612366
-0.00766908
-0.00768896
-0.00878204
-0.00938122
-0.0101002
-0.0116284
-0.000374298
-0.00436602
-0.0014814
-0.00148835
-0.00146463
-0.00271202
-0.00335277
-0.00482035
-0.00655262
-0.00420295
-0.00562574
-0.0081129
-0.00520612
-0.00605962
-0.00788395
-0.00786843
-0.00883466
-0.0096585
-0.0102862
-0.0116331
-0.00041406
-0.00436478
-0.00154467
-0.0015552
-0.00158736
-0.00279217
-0.00341901
-0.00475689
-0.00662096
-0.00431181
-0.00557584
-0.00822716
-0.00540343
-0.00599069
-0.00808395
-0.00808923
-0.00887386
-0.009907
-0.0105204
-0.0116283
-0.000457708
-0.00436187
-0.00161609
-0.00161893
-0.00171818
-0.00286953
-0.00349362
-0.0047008
-0.00667803
-0.00443972
-0.00552203
-0.00833156
-0.00562894
-0.0059224
-0.00826011
-0.00835102
-0.00891259
-0.0101104
-0.0107945
-0.0116472
-0.000505602
-0.00435703
-0.00169627
-0.00167942
-0.00185685
-0.00294486
-0.00357516
-0.00465459
-0.00672155
-0.00458714
-0.0054688
-0.00842061
-0.00588291
-0.00586289
-0.00840417
-0.00864902
-0.00896742
-0.0102598
-0.0110915
-0.0117198
-0.000558151
-0.00434996
-0.00178579
-0.00173658
-0.00200271
-0.00301896
-0.00366135
-0.00462125
-0.00675084
-0.00475282
-0.00542139
-0.00848952
-0.00616307
-0.00582118
-0.00851043
-0.00897547
-0.00905443
-0.0103545
-0.0113864
-0.0118643
-0.00061576
-0.00434037
-0.00188516
-0.00179061
-0.00215476
-0.0030688
-0.00374982
-0.00460362
-0.00676635
-0.00493372
-0.00538546
-0.0085351
-0.00646529
-0.00580634
-0.00857607
-0.00931946
-0.00918635
-0.0104022
-0.0116512
-0.0120814
-0.000678882
-0.00432799
-0.00199463
-0.00184203
-0.00231202
-0.00314801
-0.0038377
-0.0046033
-0.00676959
-0.00512623
-0.0053667
-0.00855659
-0.00678344
-0.00582688
-0.0086018
-0.00966661
-0.00937045
-0.0104187
-0.0118619
-0.0123518
-0.000747999
-0.00431253
-0.00211437
-0.00189176
-0.00247284
-0.00323264
-0.00392088
-0.00462081
-0.00676386
-0.00532578
-0.00537009
-0.00855512
-0.00710967
-0.00588963
-0.00859273
-0.0100027
-0.00960738
-0.0104241
-0.0120058
-0.0126462
-0.000823537
-0.00429384
-0.00224436
-0.00194083
-0.00263515
-0.00332524
-0.00399669
-0.00465564
-0.00675329
-0.00552692
-0.00539868
-0.00853373
-0.00743594
-0.00599955
-0.0085576
-0.0103138
-0.00989249
-0.0104377
-0.012083
-0.0129304
-0.000905958
-0.00427188
-0.00238416
-0.00199074
-0.0027961
-0.00342864
-0.00406502
-0.00470546
-0.00674239
-0.00572522
-0.00545349
-0.00849763
-0.00775457
-0.00615858
-0.00850685
-0.0105879
-0.0102174
-0.0104771
-0.0121045
-0.013172
-0.000995706
-0.00424669
-0.00253309
-0.00204336
-0.00295252
-0.00354495
-0.0041264
-0.00476693
-0.00673589
-0.00591858
-0.00553424
-0.00845202
-0.00805955
-0.00636639
-0.00845094
-0.0108155
-0.0105723
-0.0105557
-0.0120854
-0.0133503
-0.00109308
-0.00421849
-0.00269011
-0.00210089
-0.00310148
-0.00367532
-0.0041846
-0.00483604
-0.00673191
-0.00610699
-0.00563937
-0.00840196
-0.00834681
-0.00662073
-0.00840063
-0.0109894
-0.0109466
-0.0106822
-0.0120399
-0.0134616
-0.00119828
-0.00418767
-0.00285386
-0.00216586
-0.00324014
-0.00381993
-0.00424364
-0.00490824
-0.00674453
-0.00629101
-0.00576677
-0.00835222
-0.00861314
-0.00691688
-0.00836762
-0.0111047
-0.0113251
-0.0108634
-0.0119831
-0.0135106
-0.00131152
-0.0041548
-0.00302266
-0.00224087
-0.00336629
-0.00397797
-0.00430801
-0.0049795
-0.00676768
-0.00647262
-0.0059146
-0.00830722
-0.00885701
-0.00724783
-0.00836285
-0.0111616
-0.0116891
-0.0111044
-0.011933
-0.013501
-0.00143292
-0.00412064
-0.00319442
-0.00232844
-0.00347865
-0.00414726
-0.00438331
-0.00504701
-0.00679945
-0.00665504
-0.00608218
-0.00827037
-0.00907682
-0.00760589
-0.00839571
-0.0111666
-0.0120194
-0.0114027
-0.0119121
-0.0134385
-0.00156263
-0.004086
-0.00336702
-0.00243093
-0.00357675
-0.00432456
-0.0044752
-0.00511036
-0.00683614
-0.00684051
-0.00626966
-0.00824433
-0.00927063
-0.00798315
-0.00847374
-0.0111305
-0.0122979
-0.0117452
-0.0119451
-0.0133372
-0.00170081
-0.00405182
-0.00353848
-0.00255049
-0.00366144
-0.00450522
-0.00458856
-0.00517143
-0.00687252
-0.00702917
-0.0064774
-0.00823218
-0.00943733
-0.00836991
-0.00860157
-0.0110682
-0.0125114
-0.0121098
-0.01205
-0.0132219
-0.00184752
-0.00401934
-0.0037041
-0.00268892
-0.00373469
-0.00468371
-0.00472643
-0.00523471
-0.00690483
-0.00721973
-0.00670557
-0.00823764
-0.00957608
-0.00875569
-0.00877975
-0.0109973
-0.0126551
-0.0124723
-0.0122303
-0.0131247
-0.00200241
-0.00398978
-0.00386229
-0.00284747
-0.00380008
-0.00485403
-0.00488856
-0.00530783
-0.00693251
-0.00740815
-0.00695236
-0.00826497
-0.00968721
-0.00913003
-0.00900529
-0.0109351
-0.0127326
-0.0128098
-0.0124758
-0.0130769
-0.00216493
-0.00396477
-0.00401122
-0.00302647
-0.00386331
-0.00501092
-0.0050727
-0.00539838
-0.00695737
-0.00758892
-0.00721435
-0.00831811
-0.00977291
-0.00948228
-0.00927304
-0.0108996
-0.0127536
-0.0131014
-0.0127657
-0.0130999
-0.00233435
-0.00394725
-0.00414902
-0.00322475
-0.00393141
-0.00515138
-0.00527287
-0.00551103
-0.00698225
-0.00775817
-0.0074874
-0.0083994
-0.00983836
-0.00980413
-0.00957365
-0.0109052
-0.0127344
-0.013333
-0.0130743
-0.0131982
-0.00250963
-0.00393947
-0.00427442
-0.00343936
-0.00401195
-0.00527444
-0.00548138
-0.00564798
-0.00701169
-0.00791317
-0.00776576
-0.00851018
-0.00989135
-0.0100902
-0.00989432
-0.01096
-0.0126956
-0.0135014
-0.0133746
-0.0133588
-0.00268955
-0.00394396
-0.00438706
-0.0036654
-0.00411129
-0.00538234
-0.00569084
-0.00580866
-0.00705135
-0.00805284
-0.00804296
-0.00865016
-0.00993988
-0.0103379
-0.0102225
-0.0110658
-0.0126571
-0.0136125
-0.0136453
-0.0135595
-0.00287278
-0.00396287
-0.0044882
-0.00389683
-0.00423313
-0.0054814
-0.00589521
-0.00598998
-0.00710589
-0.00817782
-0.00831272
-0.00881735
-0.00999304
-0.0105474
-0.0105457
-0.011219
-0.0126351
-0.0136781
-0.0138754
-0.0137787
-0.00305794
-0.00399765
-0.00458039
-0.00412815
-0.00437875
-0.00557974
-0.00609234
-0.00618711
-0.00717799
-0.00828987
-0.00856987
-0.00900844
-0.0100588
-0.0107219
-0.0108509
-0.0114112
-0.0126443
-0.013713
-0.0140607
-0.0139985
-0.00324376
-0.00404871
-0.00466744
-0.00435542
-0.00454709
-0.00568404
-0.00628242
-0.00639618
-0.00726808
-0.00839113
-0.00881016
-0.00921806
-0.0101432
-0.0108684
-0.0111279
-0.0116288
-0.0126939
-0.0137353
-0.0142019
-0.0142054
-0.00342929
-0.00411581
-0.00475318
-0.00457676
-0.00473424
-0.00579873
-0.00646841
-0.00661523
-0.00737599
-0.00848372
-0.00903062
-0.00943962
-0.0102501
-0.0109969
-0.0113712
-0.0118546
-0.0127823
-0.0137638
-0.0143069
-0.0143888
-0.00361408
-0.00419747
-0.00484039
-0.00479164
-0.00493651
-0.00592671
-0.00665284
-0.00684177
-0.00750155
-0.00857055
-0.00922899
-0.00966678
-0.0103812
-0.0111168
-0.0115817
-0.0120744
-0.0128979
-0.0138104
-0.0143899
-0.0145414
-0.00379785
-0.00429366
-0.00493146
-0.00499991
-0.00515072
-0.00606844
-0.00683737
-0.00707381
-0.00764338
-0.00865488
-0.00940354
-0.00989222
-0.0105371
-0.0112389
-0.011765
-0.0122802
-0.013028
-0.013874
-0.0144657
-0.0146662
-0.00397931
-0.00440245
-0.00503067
-0.00520657
-0.00537551
-0.00622052
-0.00702003
-0.00730971
-0.00780124
-0.00874043
-0.00955514
-0.0101081
-0.0107127
-0.011372
-0.0119289
-0.012468
-0.0131632
-0.0139473
-0.0145413
-0.0147744
-0.00415773
-0.0045159
-0.00514257
-0.00542045
-0.00560966
-0.00637979
-0.00719656
-0.00754689
-0.0079774
-0.00883211
-0.00968619
-0.010308
-0.0108995
-0.0115206
-0.0120842
-0.0126387
-0.0132983
-0.0140254
-0.0146143
-0.014875
-0.00433807
-0.00464739
-0.00526146
-0.00562757
-0.0058472
-0.00654566
-0.00736655
-0.00778289
-0.00817506
-0.00893781
-0.00980071
-0.0104871
-0.0110891
-0.0116829
-0.01224
-0.0127974
-0.0134313
-0.0141084
-0.0146817
-0.0149679
-0.004521
-0.00479003
-0.00538692
-0.00582911
-0.00608829
-0.00672046
-0.00753028
-0.0080149
-0.00839278
-0.00906549
-0.00990509
-0.0106413
-0.0112722
-0.011854
-0.0124006
-0.01295
-0.0135606
-0.0141969
-0.0147436
-0.0150478
-0.00470584
-0.00494311
-0.00552036
-0.00602621
-0.00633209
-0.00690649
-0.00768943
-0.00823612
-0.00862418
-0.00921839
-0.0100075
-0.0107706
-0.0114388
-0.0120275
-0.0125667
-0.0131015
-0.0136867
-0.0142895
-0.0148048
-0.0151126
-0.00489368
-0.00510801
-0.00566325
-0.00621741
-0.00657493
-0.00710443
-0.00784709
-0.00844136
-0.00886005
-0.00939594
-0.01012
-0.0108827
-0.0115826
-0.0121932
-0.0127361
-0.0132568
-0.0138114
-0.0143842
-0.0148709
-0.0151671
-0.00508484
-0.00528276
-0.0058147
-0.00640442
-0.00681533
-0.00731393
-0.00800736
-0.00863071
-0.0090912
-0.00959307
-0.0102498
-0.010987
-0.0117045
-0.0123402
-0.0129002
-0.0134165
-0.0139389
-0.0144792
-0.0149427
-0.0152198
-0.00527863
-0.00546484
-0.00597742
-0.00658938
-0.00705076
-0.00753284
-0.00817445
-0.00880631
-0.0093084
-0.00980179
-0.0103991
-0.0110925
-0.0118103
-0.0124654
-0.0130471
-0.0135747
-0.0140736
-0.0145756
-0.0150174
-0.0152759
-0.00547578
-0.00565572
-0.00614998
-0.00677292
-0.00727919
-0.00775805
-0.00835203
-0.00897358
-0.00950772
-0.0100102
-0.010565
-0.0112061
-0.0119048
-0.0125719
-0.0131697
-0.0137175
-0.0142128
-0.0146769
-0.0150929
-0.0153369
-0.00567625
-0.00585162
-0.00633299
-0.00695768
-0.00749965
-0.00798511
-0.00853913
-0.00913796
-0.00969071
-0.0102081
-0.0107406
-0.0113343
-0.0119959
-0.0126632
-0.0132715
-0.0138321
-0.0143415
-0.0147817
-0.0151666
-0.0153996
-0.00588079
-0.00605459
-0.00652405
-0.00714441
-0.00771299
-0.00821189
-0.00873573
-0.00930427
-0.00986066
-0.0103881
-0.0109112
-0.0114712
-0.0120906
-0.0127431
-0.0133597
-0.0139229
-0.0144452
-0.0148813
-0.0152345
-0.0154526
-0.00608874
-0.0062595
-0.00672291
-0.0073371
-0.0079207
-0.0084334
-0.00893697
-0.0094762
-0.0100248
-0.0105556
-0.0110693
-0.0116038
-0.0121843
-0.012809
-0.0134305
-0.0140001
-0.0145277
-0.014972
-0.0153032
-0.0154979
-0.00630094
-0.00646844
-0.0069274
-0.00753445
-0.00812478
-0.00864884
-0.00913838
-0.00965007
-0.0101837
-0.0107131
-0.0112204
-0.0117316
-0.0122745
-0.0128578
-0.013466
-0.0140483
-0.0145844
-0.0150458
-0.0153768
-0.0155522
-0.00651813
-0.0066844
-0.00713507
-0.00773513
-0.00832696
-0.00885995
-0.00934095
-0.00982693
-0.0103353
-0.0108521
-0.0113564
-0.0118529
-0.0123649
-0.012904
-0.0134724
-0.0140486
-0.0145918
-0.0150721
-0.0154266
-0.0156058
-0.00673723
-0.00689799
-0.00734642
-0.00794332
-0.00853
-0.00906378
-0.00954108
-0.010011
-0.0104906
-0.01098
-0.0114701
-0.0119518
-0.0124382
-0.012945
-0.0134696
-0.0140142
-0.0145456
-0.0150244
-0.0154001
-0.0156059
-0.00696039
-0.00711674
-0.00755874
-0.00815179
-0.00873253
-0.00926186
-0.00973574
-0.0101975
-0.0106545
-0.0111101
-0.0115722
-0.0120256
-0.0124769
-0.0129534
-0.0134455
-0.0139551
-0.0144644
-0.0149278
-0.0152958
-0.015502
-0.00718763
-0.0073419
-0.00777388
-0.00835967
-0.00893329
-0.00945457
-0.00992473
-0.0103815
-0.0108219
-0.0112482
-0.011671
-0.012075
-0.012473
-0.0129018
-0.0133574
-0.0138413
-0.0143473
-0.0148165
-0.0151921
-0.0153946
-0.0074139
-0.00756778
-0.0079959
-0.00857265
-0.0091333
-0.00964094
-0.0101067
-0.0105669
-0.0110051
-0.0114134
-0.0117867
-0.0121085
-0.012404
-0.0127234
-0.0130837
-0.0134884
-0.0139611
-0.0144809
-0.0149938
-0.0154114
-0.00763984
-0.0077925
-0.00821686
-0.00878463
-0.00933524
-0.00983148
-0.0102925
-0.0107482
-0.0112017
-0.0116624
-0.012071
-0.0123308
-0.0124956
-0.0126736
-0.0129012
-0.0131276
-0.013289
-0.0133633
-0.0133664
-0.013373
-0.00788309
-0.00801363
-0.00840922
-0.00894852
-0.00949185
-0.0100123
-0.0104991
-0.0109159
-0.011237
-0.0115376
-0.0118411
-0.0121313
-0.012386
-0.0126243
-0.0128456
-0.0130208
-0.0131841
-0.0133742
-0.0135877
-0.0138435
-0.00817436
-0.00833575
-0.00865033
-0.00909033
-0.00955308
-0.00999494
-0.0104201
-0.01084
-0.0112357
-0.01161
-0.0119768
-0.012327
-0.0126294
-0.0128483
-0.0130217
-0.0131444
-0.013181
-0.01314
-0.0130952
-0.0131456
-0.00832648
-0.00841427
-0.00873804
-0.00919028
-0.00963225
-0.0100434
-0.0104585
-0.0108893
-0.0112961
-0.0116863
-0.0120319
-0.0123016
-0.0125359
-0.012751
-0.0130101
-0.0133664
-0.0138393
-0.0143981
-0.0149737
-0.0154731
-0.00857253
-0.0086965
-0.00894687
-0.00929879
-0.00966847
-0.0100534
-0.0104721
-0.0109211
-0.0113574
-0.0117633
-0.0121308
-0.0124334
-0.0126705
-0.0128604
-0.0129962
-0.0130681
-0.0130666
-0.0130313
-0.0130436
-0.0131936
-0.00872766
-0.00883982
-0.00906019
-0.00936076
-0.00969059
-0.0100648
-0.0104862
-0.0109404
-0.0113955
-0.0118314
-0.0122192
-0.0125305
-0.0127463
-0.0129024
-0.0130486
-0.0132085
-0.0133794
-0.0135542
-0.0137616
-0.0140522
-0.00461349
-0.00792703
-0.0152832
-0.0206279
-0.0217985
-0.0206943
-0.0192373
-0.0181898
-0.0177272
-0.0177571
-0.0181005
-0.018511
-0.0187327
-0.0187528
-0.0187542
-0.0188493
-0.0190616
-0.0193248
-0.0194557
-0.0194096
-0.0193907
-0.019558
-0.0198169
-0.020003
-0.0201138
-0.0202625
-0.0204954
-0.0207733
-0.0210083
-0.0211704
-0.0213393
-0.0215623
-0.0217969
-0.022042
-0.0223595
-0.0227816
-0.0232263
-0.0236189
-0.023919
-0.0241112
-0.0242767
-0.0245025
-0.0247434
-0.0249731
-0.0252542
-0.025591
-0.025923
-0.0262602
-0.0266097
-0.0269155
-0.027175
-0.0274411
-0.0277595
-0.0280977
-0.0284457
-0.0287917
-0.0291307
-0.0294746
-0.0298409
-0.0301899
-0.0305379
-0.0309209
-0.031329
-0.0317025
-0.0320594
-0.0324246
-0.0327744
-0.0331482
-0.0335514
-0.0339761
-0.0344033
-0.03482
-0.035259
-0.0357079
-0.0361802
-0.0366287
-0.0370712
-0.0375038
-0.037969
-0.0384891
-0.0390181
-0.0395382
-0.0400384
-0.0405694
-0.0410858
-0.0416405
-0.0421869
-0.0427653
-0.0433329
-0.0439377
-0.0445386
-0.0451592
-0.0457677
-0.0463412
-0.0469994
-0.0475504
-0.0481215
-0.04867
-0.0488718
-0.0491332
-0.00521318
-0.00801149
-0.0151735
-0.0205157
-0.0217344
-0.0206604
-0.0192148
-0.0181721
-0.0177122
-0.0177442
-0.01809
-0.0185032
-0.018727
-0.0187483
-0.0187502
-0.0188454
-0.0190579
-0.0193218
-0.0194532
-0.0194071
-0.019388
-0.0195553
-0.0198146
-0.0200009
-0.0201117
-0.0202604
-0.0204933
-0.0207714
-0.0210066
-0.0211688
-0.0213377
-0.0215608
-0.0217956
-0.0220407
-0.0223582
-0.0227804
-0.0232252
-0.023618
-0.0239182
-0.0241105
-0.024276
-0.0245018
-0.0247428
-0.0249725
-0.0252536
-0.0255904
-0.0259225
-0.0262597
-0.0266093
-0.0269151
-0.0271746
-0.0274407
-0.0277591
-0.0280973
-0.0284453
-0.0287914
-0.0291304
-0.0294743
-0.0298406
-0.0301896
-0.0305376
-0.0309206
-0.0313287
-0.0317023
-0.0320591
-0.0324243
-0.0327742
-0.033148
-0.0335512
-0.0339759
-0.0344031
-0.0348198
-0.0352588
-0.0357077
-0.0361801
-0.0366285
-0.0370711
-0.0375037
-0.0379688
-0.0384889
-0.039018
-0.039538
-0.0400382
-0.0405693
-0.0410857
-0.0416403
-0.0421868
-0.0427652
-0.0433328
-0.0439376
-0.0445385
-0.0451591
-0.0457676
-0.0463411
-0.0469993
-0.0475503
-0.0481214
-0.0486699
-0.0488717
-0.0491329
-0.00575433
-0.00801468
-0.0149096
-0.0202818
-0.0216187
-0.0206126
-0.0191918
-0.0181573
-0.0177006
-0.0177335
-0.0180788
-0.0184921
-0.0187177
-0.0187416
-0.0187456
-0.0188419
-0.0190546
-0.0193188
-0.0194507
-0.0194048
-0.0193857
-0.0195531
-0.0198126
-0.0199991
-0.0201099
-0.0202586
-0.0204916
-0.0207698
-0.0210052
-0.0211674
-0.0213363
-0.0215594
-0.0217943
-0.0220394
-0.022357
-0.0227793
-0.0232244
-0.0236173
-0.0239176
-0.0241099
-0.0242753
-0.0245011
-0.0247423
-0.0249719
-0.0252531
-0.0255899
-0.0259221
-0.0262593
-0.0266089
-0.0269148
-0.0271743
-0.0274404
-0.0277588
-0.028097
-0.028445
-0.0287911
-0.0291302
-0.029474
-0.0298403
-0.0301894
-0.0305374
-0.0309204
-0.0313285
-0.0317021
-0.0320589
-0.0324241
-0.032774
-0.0331478
-0.033551
-0.0339757
-0.0344029
-0.0348196
-0.0352586
-0.0357075
-0.0361799
-0.0366284
-0.0370709
-0.0375035
-0.0379687
-0.0384888
-0.0390179
-0.0395379
-0.0400381
-0.0405692
-0.0410856
-0.0416402
-0.0421867
-0.0427651
-0.0433327
-0.0439375
-0.0445384
-0.0451591
-0.0457675
-0.046341
-0.0469992
-0.0475503
-0.0481213
-0.0486699
-0.0488716
-0.0491326
-0.0062469
-0.00801093
-0.0145865
-0.0199837
-0.0214632
-0.0205482
-0.0191622
-0.0181395
-0.017688
-0.017723
-0.0180665
-0.0184765
-0.0187014
-0.0187289
-0.0187381
-0.0188374
-0.0190505
-0.0193143
-0.0194468
-0.0194021
-0.0193838
-0.0195512
-0.0198104
-0.0199969
-0.0201082
-0.0202571
-0.02049
-0.0207681
-0.0210035
-0.0211659
-0.0213349
-0.0215581
-0.0217928
-0.0220378
-0.0223555
-0.0227782
-0.0232235
-0.0236166
-0.0239169
-0.0241091
-0.0242745
-0.0245004
-0.0247416
-0.0249713
-0.0252525
-0.0255894
-0.0259216
-0.0262589
-0.0266086
-0.0269145
-0.0271739
-0.02744
-0.0277584
-0.0280967
-0.0284447
-0.0287908
-0.0291299
-0.0294737
-0.0298401
-0.0301892
-0.0305371
-0.0309202
-0.0313283
-0.0317019
-0.0320587
-0.0324239
-0.0327738
-0.0331476
-0.0335508
-0.0339755
-0.0344027
-0.0348194
-0.0352584
-0.0357074
-0.0361798
-0.0366282
-0.0370708
-0.0375034
-0.0379685
-0.0384886
-0.0390177
-0.0395378
-0.040038
-0.0405691
-0.0410855
-0.0416401
-0.0421866
-0.042765
-0.0433326
-0.0439375
-0.0445383
-0.045159
-0.0457675
-0.046341
-0.0469992
-0.0475502
-0.0481213
-0.0486699
-0.0488717
-0.0491321
-0.00674626
-0.00805881
-0.0142568
-0.0196595
-0.02129
-0.020476
-0.0191291
-0.018119
-0.0176735
-0.017712
-0.018053
-0.018456
-0.0186776
-0.0187093
-0.0187263
-0.0188309
-0.0190447
-0.0193072
-0.0194404
-0.0193987
-0.0193825
-0.0195494
-0.0198073
-0.0199938
-0.0201062
-0.020256
-0.0204887
-0.0207662
-0.0210016
-0.0211644
-0.0213337
-0.0215567
-0.021791
-0.0220358
-0.0223537
-0.0227768
-0.0232224
-0.0236156
-0.023916
-0.0241082
-0.0242735
-0.0244995
-0.0247408
-0.0249705
-0.0252518
-0.0255888
-0.025921
-0.0262584
-0.0266082
-0.0269141
-0.0271735
-0.0274395
-0.027758
-0.0280963
-0.0284444
-0.0287905
-0.0291296
-0.0294734
-0.0298398
-0.0301889
-0.0305369
-0.0309199
-0.0313281
-0.0317017
-0.0320585
-0.0324237
-0.0327736
-0.0331473
-0.0335506
-0.0339754
-0.0344025
-0.0348193
-0.0352582
-0.0357072
-0.0361796
-0.0366281
-0.0370706
-0.0375032
-0.0379683
-0.0384885
-0.0390176
-0.0395377
-0.0400379
-0.040569
-0.0410854
-0.04164
-0.0421865
-0.0427649
-0.0433326
-0.0439374
-0.0445382
-0.0451589
-0.0457674
-0.0463409
-0.0469991
-0.0475502
-0.0481212
-0.0486699
-0.0488719
-0.0491316
-0.00726063
-0.00816503
-0.0139249
-0.0193116
-0.0211017
-0.0203986
-0.0190946
-0.018097
-0.0176572
-0.0176999
-0.0180383
-0.0184326
-0.0186491
-0.0186851
-0.0187113
-0.0188224
-0.0190365
-0.0192967
-0.0194309
-0.0193943
-0.019382
-0.0195483
-0.0198034
-0.0199892
-0.0201035
-0.0202552
-0.0204877
-0.0207639
-0.020999
-0.0211628
-0.0213328
-0.0215555
-0.0217889
-0.0220334
-0.0223515
-0.0227751
-0.023221
-0.0236141
-0.0239145
-0.0241068
-0.0242722
-0.0244982
-0.0247396
-0.0249695
-0.0252508
-0.0255879
-0.0259203
-0.0262578
-0.0266078
-0.0269137
-0.0271729
-0.027439
-0.0277575
-0.0280959
-0.0284439
-0.0287901
-0.0291292
-0.0294731
-0.0298395
-0.0301886
-0.0305365
-0.0309196
-0.0313278
-0.0317015
-0.0320583
-0.0324235
-0.0327733
-0.0331471
-0.0335504
-0.0339751
-0.0344024
-0.034819
-0.035258
-0.035707
-0.0361794
-0.0366279
-0.0370705
-0.0375031
-0.0379681
-0.0384883
-0.0390175
-0.0395376
-0.0400378
-0.0405689
-0.0410852
-0.0416399
-0.0421864
-0.0427648
-0.0433324
-0.0439373
-0.0445381
-0.0451588
-0.0457673
-0.0463408
-0.046999
-0.0475502
-0.0481212
-0.0486701
-0.0488722
-0.0491309
-0.00777454
-0.00831759
-0.013588
-0.0189383
-0.0208979
-0.0203166
-0.0190596
-0.0180743
-0.0176393
-0.0176861
-0.0180222
-0.0184076
-0.0186187
-0.0186593
-0.0186952
-0.0188129
-0.0190263
-0.0192829
-0.0194184
-0.019389
-0.0193826
-0.0195479
-0.0197988
-0.0199832
-0.0200999
-0.0202542
-0.0204865
-0.020761
-0.0209956
-0.0211609
-0.0213323
-0.0215546
-0.0217868
-0.0220307
-0.0223492
-0.0227733
-0.0232191
-0.0236119
-0.0239123
-0.0241049
-0.0242705
-0.0244965
-0.024738
-0.0249682
-0.0252497
-0.0255868
-0.0259192
-0.026257
-0.0266072
-0.026913
-0.0271723
-0.0274383
-0.027757
-0.0280953
-0.0284434
-0.0287896
-0.0291288
-0.0294727
-0.0298391
-0.0301882
-0.0305362
-0.0309193
-0.0313276
-0.0317012
-0.032058
-0.0324233
-0.0327731
-0.0331468
-0.0335501
-0.0339749
-0.0344021
-0.0348188
-0.0352578
-0.0357068
-0.0361792
-0.0366278
-0.0370703
-0.0375029
-0.0379679
-0.0384882
-0.0390173
-0.0395374
-0.0400376
-0.0405687
-0.0410851
-0.0416398
-0.0421862
-0.0427647
-0.0433323
-0.0439371
-0.044538
-0.0451587
-0.0457673
-0.0463407
-0.046999
-0.0475501
-0.0481212
-0.0486704
-0.0488728
-0.0491303
-0.00826999
-0.0085119
-0.0132538
-0.0185431
-0.0206787
-0.0202302
-0.0190245
-0.0180515
-0.0176197
-0.0176704
-0.0180049
-0.0183818
-0.0185877
-0.0186329
-0.0186787
-0.0188027
-0.0190147
-0.0192666
-0.0194035
-0.0193828
-0.0193837
-0.0195484
-0.0197941
-0.0199762
-0.0200953
-0.0202526
-0.0204848
-0.0207572
-0.0209914
-0.0211587
-0.0213319
-0.021554
-0.0217849
-0.0220283
-0.0223471
-0.0227716
-0.0232172
-0.0236091
-0.0239092
-0.0241024
-0.0242682
-0.0244942
-0.024736
-0.0249666
-0.0252482
-0.0255852
-0.0259179
-0.026256
-0.0266064
-0.0269122
-0.0271714
-0.0274376
-0.0277563
-0.0280946
-0.0284427
-0.028789
-0.0291283
-0.0294721
-0.0298385
-0.0301877
-0.0305358
-0.0309189
-0.0313272
-0.031701
-0.0320578
-0.032423
-0.0327728
-0.0331465
-0.0335499
-0.0339747
-0.0344019
-0.0348186
-0.0352576
-0.0357065
-0.036179
-0.0366276
-0.0370701
-0.0375026
-0.0379676
-0.0384879
-0.0390172
-0.0395373
-0.0400374
-0.0405686
-0.0410849
-0.0416396
-0.0421861
-0.0427646
-0.0433322
-0.043937
-0.0445379
-0.0451586
-0.0457672
-0.0463406
-0.046999
-0.0475501
-0.0481212
-0.0486708
-0.0488735
-0.0491295
-0.00873464
-0.00874784
-0.0129345
-0.0181301
-0.0204424
-0.0201381
-0.0189891
-0.0180287
-0.0175985
-0.0176527
-0.0179864
-0.0183556
-0.0185562
-0.0186059
-0.0186617
-0.018792
-0.0190021
-0.0192489
-0.0193871
-0.0193759
-0.0193852
-0.0195495
-0.0197896
-0.0199688
-0.0200901
-0.0202503
-0.0204825
-0.0207527
-0.0209863
-0.0211559
-0.0213313
-0.0215533
-0.0217831
-0.0220262
-0.0223457
-0.0227707
-0.0232155
-0.023606
-0.0239054
-0.024099
-0.0242654
-0.0244913
-0.0247334
-0.0249649
-0.0252466
-0.0255833
-0.0259161
-0.0262547
-0.0266053
-0.0269111
-0.0271703
-0.0274366
-0.0277554
-0.0280937
-0.0284418
-0.0287883
-0.0291277
-0.0294715
-0.0298378
-0.030187
-0.0305353
-0.0309185
-0.0313268
-0.0317006
-0.0320575
-0.0324227
-0.0327724
-0.0331462
-0.0335496
-0.0339744
-0.0344017
-0.0348183
-0.0352573
-0.0357063
-0.0361788
-0.0366274
-0.0370699
-0.0375024
-0.0379673
-0.0384877
-0.039017
-0.0395371
-0.0400372
-0.0405684
-0.0410847
-0.0416394
-0.0421859
-0.0427644
-0.043332
-0.0439368
-0.0445378
-0.0451585
-0.0457671
-0.0463405
-0.046999
-0.0475501
-0.0481213
-0.0486714
-0.0488746
-0.0491287
-0.00915922
-0.0090222
-0.0126411
-0.0177026
-0.0201865
-0.020038
-0.0189526
-0.0180062
-0.0175761
-0.0176329
-0.0179665
-0.0183287
-0.0185242
-0.0185783
-0.0186439
-0.0187806
-0.0189889
-0.0192302
-0.0193695
-0.0193682
-0.0193866
-0.0195511
-0.0197854
-0.0199615
-0.0200847
-0.0202476
-0.0204796
-0.0207475
-0.0209805
-0.0211527
-0.0213305
-0.0215526
-0.0217814
-0.0220247
-0.0223451
-0.0227707
-0.0232147
-0.0236032
-0.0239013
-0.0240951
-0.0242618
-0.0244875
-0.0247302
-0.0249629
-0.0252449
-0.0255812
-0.0259142
-0.0262532
-0.0266039
-0.0269096
-0.0271689
-0.0274355
-0.0277544
-0.0280926
-0.0284406