/*--------------------------------*- C++ -*----------------------------------*\
| =========                 |                                                 |
| \\      /  F ield         | OpenFOAM: The Open Source CFD Toolbox           |
|  \\    /   O peration     | Version:  2506                                  |
|   \\  /    A nd           | Website:  www.openfoam.com                      |
|    \\/     M anipulation  |                                                 |
\*---------------------------------------------------------------------------*/
FoamFile
{
    version     2.0;
    format      ascii;
    arch        "LSB;label=32;scalar=64";
    class       surfaceScalarField;
    location    "7.35";
    object      phi;
}
// * * * * * * * * * * * * * * * * * * * * * * * * * * * * * * * * * * * * * //

dimensions      [0 3 -1 0 0 0 0];

oriented        oriented;

internalField   nonuniform List<scalar> 
19000
(
1.18344e-06
1.34632e-06
1.16791e-06
-1.7951e-06
1.16847e-06
5.96405e-07
1.12107e-06
-4.94858e-07
1.19327e-06
2.0691e-06
1.07036e-06
-1.3014e-06
1.11083e-06
3.03924e-07
1.16857e-06
8.68679e-07
1.12154e-06
-7.64075e-07
1.16951e-06
-1.34422e-07
1.17376e-06
1.63103e-07
1.15531e-06
1.93626e-07
1.17007e-06
1.05849e-06
1.13301e-06
1.36317e-07
1.15935e-06
9.93827e-07
1.10947e-06
2.25552e-07
1.12678e-06
6.87631e-07
1.07894e-06
1.59005e-07
1.08958e-06
4.06879e-07
1.61246e-07
1.04073e-06
1.23798e-06
1.3326e-06
1.2234e-06
-1.78052e-06
1.22027e-06
5.99533e-07
1.176e-06
-4.5059e-07
1.24454e-06
2.00057e-06
1.12183e-06
-1.17869e-06
1.157e-06
2.6875e-07
1.2295e-06
7.96181e-07
1.18186e-06
-7.16439e-07
1.23182e-06
-1.84378e-07
1.23253e-06
1.62395e-07
1.21226e-06
2.139e-07
1.22082e-06
1.04993e-06
1.19349e-06
1.63655e-07
1.20105e-06
9.86259e-07
1.17462e-06
2.51987e-07
1.16267e-06
6.99585e-07
1.14905e-06
1.72619e-07
1.12342e-06
4.32511e-07
1.54692e-07
1.12997e-06
1.29574e-06
1.31965e-06
1.28044e-06
-1.76522e-06
1.27624e-06
6.03731e-07
1.23239e-06
-4.06738e-07
1.29736e-06
1.93559e-06
1.18416e-06
-1.06549e-06
1.20494e-06
2.47976e-07
1.29023e-06
7.10884e-07
1.24879e-06
-6.74993e-07
1.29207e-06
-2.27658e-07
1.2944e-06
1.60062e-07
1.27822e-06
2.30079e-07
1.28006e-06
1.04809e-06
1.25757e-06
1.86142e-07
1.2582e-06
9.85632e-07
1.241e-06
2.69186e-07
1.22762e-06
7.12965e-07
1.21785e-06
1.82383e-07
1.20676e-06
4.43608e-07
1.62194e-07
1.19925e-06
1.35633e-06
1.30742e-06
1.34038e-06
-1.74927e-06
1.33482e-06
6.09285e-07
1.29341e-06
-3.65322e-07
1.35209e-06
1.87691e-06
1.25784e-06
-9.71242e-07
1.25722e-06
2.48595e-07
1.3497e-06
6.18405e-07
1.31808e-06
-6.43374e-07
1.34821e-06
-2.5779e-07
1.35503e-06
1.53245e-07
1.34473e-06
2.40381e-07
1.34453e-06
1.04828e-06
1.32315e-06
2.07529e-07
1.32282e-06
9.85954e-07
1.30675e-06
2.85261e-07
1.29988e-06
7.1983e-07
1.28616e-06
1.96107e-07
1.2875e-06
4.42272e-07
1.77292e-07
1.2724e-06
1.42001e-06
1.29576e-06
1.40317e-06
-1.73243e-06
1.39655e-06
6.15898e-07
1.35996e-06
-3.28732e-07
1.41051e-06
1.82636e-06
1.33968e-06
-9.00412e-07
1.31898e-06
2.69299e-07
1.40814e-06
5.29246e-07
1.38872e-06
-6.23959e-07
1.40221e-06
-2.7128e-07
1.41316e-06
1.42299e-07
1.40815e-06
2.45386e-07
1.40885e-06
1.04759e-06
1.38621e-06
2.30175e-07
1.38658e-06
9.85581e-07
1.36951e-06
3.02325e-07
1.36951e-06
7.19838e-07
1.35395e-06
2.1166e-07
1.36211e-06
4.34113e-07
1.93521e-07
1.34588e-06
1.48704e-06
1.28439e-06
1.46878e-06
-1.71416e-06
1.46186e-06
6.22819e-07
1.43207e-06
-2.98951e-07
1.47412e-06
1.78431e-06
1.42496e-06
-8.51247e-07
1.393e-06
3.0126e-07
1.46965e-06
4.52592e-07
1.461e-06
-6.15306e-07
1.46012e-06
-2.70404e-07
1.47146e-06
1.3096e-07
1.469e-06
2.47847e-07
1.47193e-06
1.04465e-06
1.44819e-06
2.53917e-07
1.44937e-06
9.84401e-07
1.43268e-06
3.1902e-07
1.43914e-06
7.13378e-07
1.42431e-06
2.26483e-07
1.43779e-06
4.20635e-07
2.09104e-07
1.42221e-06
1.55761e-06
1.273e-06
1.53733e-06
-1.69387e-06
1.53107e-06
6.29079e-07
1.50908e-06
-2.76964e-07
1.54361e-06
1.74978e-06
1.51051e-06
-8.18141e-07
1.47784e-06
3.33925e-07
1.53787e-06
3.92565e-07
1.5352e-06
-6.12635e-07
1.52562e-06
-2.6083e-07
1.53378e-06
1.22804e-07
1.5307e-06
2.50929e-07
1.5363e-06
1.03905e-06
1.5134e-06
2.76814e-07
1.5164e-06
9.81406e-07
1.50148e-06
3.33939e-07
1.51407e-06
7.00789e-07
1.50038e-06
2.40168e-07
1.51814e-06
4.02878e-07
2.24151e-07
1.50309e-06
1.63189e-06
1.26124e-06
1.60907e-06
-1.67105e-06
1.60441e-06
6.33736e-07
1.59011e-06
-2.62659e-07
1.61882e-06
1.72106e-06
1.59547e-06
-7.94786e-07
1.56933e-06
3.60063e-07
1.61339e-06
3.48508e-07
1.61136e-06
-6.10613e-07
1.59807e-06
-2.47531e-07
1.60187e-06
1.19002e-07
1.59675e-06
2.56048e-07
1.60484e-06
1.03095e-06
1.58477e-06
2.96886e-07
1.59132e-06
9.74862e-07
1.57833e-06
3.46919e-07
1.59626e-06
6.82868e-07
1.5827e-06
2.53727e-07
1.60316e-06
3.82417e-07
2.39011e-07
1.5883e-06
1.71e-06
1.24881e-06
1.68433e-06
-1.64537e-06
1.68199e-06
6.36074e-07
1.67441e-06
-2.55077e-07
1.69914e-06
1.69633e-06
1.6804e-06
-7.76037e-07
1.66342e-06
3.77034e-07
1.69478e-06
3.1715e-07
1.68976e-06
-6.05591e-07
1.67498e-06
-2.32753e-07
1.67506e-06
1.18923e-07
1.66858e-06
2.62526e-07
1.67893e-06
1.0206e-06
1.66257e-06
3.1325e-07
1.67399e-06
9.63437e-07
1.66221e-06
3.58707e-07
1.68443e-06
6.60641e-07
1.67001e-06
2.68149e-07
1.69164e-06
3.60789e-07
2.53558e-07
1.67709e-06
1.79203e-06
1.2355e-06
1.76345e-06
-1.61679e-06
1.76378e-06
6.35743e-07
1.7615e-06
-2.52796e-07
1.78397e-06
1.67386e-06
1.76624e-06
-7.58311e-07
1.75786e-06
3.85418e-07
1.78038e-06
2.94624e-07
1.77094e-06
-5.96149e-07
1.75473e-06
-2.16544e-07
1.7521e-06
1.21556e-07
1.74568e-06
2.68947e-07
1.7583e-06
1.00798e-06
1.74549e-06
3.26055e-07
1.76233e-06
9.46598e-07
1.75093e-06
3.70107e-07
1.77659e-06
6.34982e-07
1.76109e-06
2.83647e-07
1.78268e-06
3.39204e-07
2.67165e-07
1.76907e-06
1.87803e-06
1.22122e-06
1.84687e-06
-1.58563e-06
1.84976e-06
6.32846e-07
1.85124e-06
-2.54273e-07
1.87296e-06
1.65214e-06
1.85391e-06
-7.39269e-07
1.85228e-06
3.87048e-07
1.86919e-06
2.77713e-07
1.8555e-06
-5.82451e-07
1.83724e-06
-1.98292e-07
1.83268e-06
1.26124e-07
1.82719e-06
2.74436e-07
1.84221e-06
9.92958e-07
1.83242e-06
3.35846e-07
1.85466e-06
9.2436e-07
1.8433e-06
3.81471e-07
1.87171e-06
6.0657e-07
1.85556e-06
2.99798e-07
1.87606e-06
3.18701e-07
2.79058e-07
1.86417e-06
1.96804e-06
1.20602e-06
1.93507e-06
-1.55266e-06
1.94002e-06
6.27899e-07
1.94385e-06
-2.58102e-07
1.96605e-06
1.62993e-06
1.9443e-06
-7.17513e-07
1.94775e-06
3.836e-07
1.96102e-06
2.64441e-07
1.94389e-06
-5.65321e-07
1.92348e-06
-1.77882e-07
1.91772e-06
1.31884e-07
1.91333e-06
2.7883e-07
1.93083e-06
9.75459e-07
1.9235e-06
3.4317e-07
1.95081e-06
8.97051e-07
1.93946e-06
3.92823e-07
1.96983e-06
5.76198e-07
1.95363e-06
3.15998e-07
1.97193e-06
3.00402e-07
2.88592e-07
1.9624e-06
2.06215e-06
1.19006e-06
2.02846e-06
-1.51896e-06
2.03471e-06
6.21642e-07
2.03968e-06
-2.63066e-07
2.06332e-06
1.60629e-06
2.03833e-06
-6.9253e-07
2.04588e-06
3.76052e-07
2.05614e-06
2.5418e-07
2.03648e-06
-5.45658e-07
2.01467e-06
-1.5607e-07
2.00873e-06
1.37817e-07
2.00549e-06
2.82075e-07
2.0254e-06
9.55554e-07
2.01994e-06
3.48622e-07
2.05163e-06
8.65363e-07
2.04016e-06
4.04292e-07
2.07131e-06
5.45051e-07
2.05551e-06
3.31798e-07
2.07039e-06
2.85517e-07
2.95336e-07
2.06365e-06
2.16054e-06
1.17352e-06
2.12713e-06
-1.48555e-06
2.13402e-06
6.1475e-07
2.139e-06
-2.68051e-07
2.16471e-06
1.58058e-06
2.13683e-06
-6.64652e-07
2.14796e-06
3.64927e-07
2.15493e-06
2.4721e-07
2.1336e-06
-5.24324e-07
2.11166e-06
-1.34134e-07
2.10673e-06
1.42748e-07
2.10506e-06
2.83746e-07
2.12716e-06
9.33457e-07
2.12271e-06
3.53067e-07
2.15764e-06
8.30437e-07
2.14565e-06
4.16282e-07
2.17604e-06
5.14661e-07
2.16094e-06
3.46889e-07
2.17136e-06
2.751e-07
2.98993e-07
2.1677e-06
2.26349e-06
1.15651e-06
2.23086e-06
-1.45292e-06
2.23801e-06
6.07596e-07
2.24191e-06
-2.71954e-07
2.27013e-06
1.55237e-06
2.24025e-06
-6.34771e-07
2.25435e-06
3.50822e-07
2.25763e-06
2.43929e-07
2.23559e-06
-5.02286e-07
2.21462e-06
-1.13157e-07
2.2115e-06
1.45863e-07
2.21203e-06
2.83215e-07
2.23596e-06
9.09531e-07
2.23141e-06
3.57612e-07
2.26813e-06
7.93721e-07
2.25523e-06
4.29179e-07
2.28337e-06
4.8652e-07
2.26942e-06
3.60847e-07
2.27493e-06
2.69581e-07
2.99511e-07
2.27442e-06
2.37134e-06
1.13905e-06
2.33934e-06
-1.42092e-06
2.34674e-06
6.002e-07
2.34853e-06
-2.73748e-07
2.37957e-06
1.52134e-06
2.34862e-06
-6.03827e-07
2.36479e-06
3.34654e-07
2.36447e-06
2.44252e-07
2.34282e-06
-4.8064e-07
2.32317e-06
-9.35047e-08
2.32187e-06
1.47164e-07
2.32489e-06
2.802e-07
2.35015e-06
8.84267e-07
2.3445e-06
3.63262e-07
2.38161e-06
7.56612e-07
2.36787e-06
4.42921e-07
2.39277e-06
4.61615e-07
2.38063e-06
3.72991e-07
2.38167e-06
2.68536e-07
2.97195e-07
2.38399e-06
2.48441e-06
1.12104e-06
2.45248e-06
-1.389e-06
2.46035e-06
5.92333e-07
2.45927e-06
-2.72671e-07
2.49332e-06
1.48728e-06
2.46189e-06
-5.72393e-07
2.47911e-06
3.17429e-07
2.4758e-06
2.4757e-07
2.45556e-06
-4.60401e-07
2.43691e-06
-7.4857e-08
2.43664e-06
1.47435e-07
2.44176e-06
2.75079e-07
2.46781e-06
8.58212e-07
2.46058e-06
3.70499e-07
2.49703e-06
7.20164e-07
2.4831e-06
4.56846e-07
2.50443e-06
4.40286e-07
2.49489e-06
3.82536e-07
2.49238e-06
2.71038e-07
2.9255e-07
2.49703e-06
2.60298e-06
1.10236e-06
2.57045e-06
-1.35647e-06
2.57911e-06
5.83678e-07
2.57479e-06
-2.68359e-07
2.61193e-06
1.45015e-06
2.5801e-06
-5.40569e-07
2.59767e-06
2.9986e-07
2.59213e-06
2.53113e-07
2.57394e-06
-4.42215e-07
2.55574e-06
-5.6658e-08
2.5554e-06
1.47779e-07
2.5618e-06
2.68679e-07
2.58812e-06
8.31886e-07
2.57945e-06
3.7917e-07
2.61463e-06
6.84986e-07
2.6015e-06
4.69974e-07
2.6194e-06
4.22388e-07
2.61304e-06
3.88898e-07
2.60806e-06
2.76013e-07
2.86237e-07
2.61438e-06
2.7273e-06
1.08289e-06
2.69363e-06
-1.3228e-06
2.70337e-06
5.7394e-07
2.69582e-06
-2.60815e-07
2.73598e-06
1.41e-06
2.70354e-06
-5.08131e-07
2.7212e-06
2.82198e-07
2.71402e-06
2.60294e-07
2.69804e-06
-4.26237e-07
2.67993e-06
-3.85466e-08
2.67858e-06
1.49128e-07
2.68546e-06
2.61802e-07
2.71165e-06
8.05694e-07
2.7021e-06
3.88715e-07
2.73575e-06
6.51343e-07
2.72429e-06
4.81426e-07
2.73911e-06
4.0757e-07
2.7361e-06
3.91907e-07
2.72963e-06
2.82483e-07
2.78994e-07
2.73688e-06
2.85759e-06
1.06257e-06
2.82244e-06
-1.28765e-06
2.83349e-06
5.62887e-07
2.82294e-06
-2.50268e-07
2.86598e-06
1.36696e-06
2.83259e-06
-4.7474e-07
2.85046e-06
2.64328e-07
2.84196e-06
2.68797e-07
2.82794e-06
-4.12213e-07
2.80989e-06
-2.05036e-08
2.80699e-06
1.52035e-07
2.8139e-06
2.54887e-07
2.8397e-06
7.79898e-07
2.82991e-06
3.98503e-07
2.86196e-06
6.19292e-07
2.8527e-06
4.90683e-07
2.86481e-06
3.95466e-07
2.86497e-06
3.91745e-07
2.85777e-06
2.89683e-07
2.71593e-07
2.86517e-06
2.99413e-06
1.04133e-06
2.95729e-06
-1.2508e-06
2.96983e-06
5.50344e-07
2.95657e-06
-2.37005e-07
3.00233e-06
1.3212e-06
2.96768e-06
-4.40088e-07
2.98602e-06
2.45981e-07
2.97635e-06
2.78468e-07
2.96379e-06
-3.99648e-07
2.94606e-06
-2.77928e-09
2.94137e-06
1.56733e-07
2.94827e-06
2.47988e-07
2.97355e-06
7.54613e-07
2.96399e-06
4.08067e-07
2.99451e-06
5.88766e-07
2.9876e-06
4.97599e-07
2.99728e-06
3.85787e-07
3.00025e-06
3.8877e-07
2.99287e-06
2.97061e-07
2.64737e-07
2.99973e-06
3.1372e-06
1.01914e-06
3.09854e-06
-1.21214e-06
3.1127e-06
5.36183e-07
3.09698e-06
-2.21282e-07
3.1453e-06
1.27287e-06
3.10917e-06
-4.0396e-07
3.12824e-06
2.26912e-07
3.11753e-06
2.89178e-07
3.10584e-06
-3.87958e-07
3.08882e-06
1.42432e-08
3.08227e-06
1.63283e-07
3.08932e-06
2.40935e-07
3.11412e-06
7.29815e-07
3.105e-06
4.1719e-07
3.13414e-06
5.59621e-07
3.12948e-06
5.02265e-07
3.13695e-06
3.78316e-07
3.14234e-06
3.83378e-07
3.1352e-06
3.04197e-07
2.59057e-07
3.14089e-06
3.2871e-06
9.95946e-07
3.24656e-06
-1.1716e-06
3.26243e-06
5.20315e-07
3.24442e-06
-2.03281e-07
3.29515e-06
1.22215e-06
3.25744e-06
-3.6625e-07
3.27737e-06
2.06986e-07
3.26581e-06
3.0073e-07
3.25441e-06
-3.76559e-07
3.23851e-06
3.01448e-08
3.2301e-06
1.71696e-07
3.23751e-06
2.33525e-07
3.26194e-06
7.0538e-07
3.25328e-06
4.25855e-07
3.2812e-06
5.31704e-07
3.27867e-06
5.04788e-07
3.28399e-06
3.72996e-07
3.29151e-06
3.7586e-07
3.28499e-06
3.10723e-07
2.55085e-07
3.28896e-06
3.44416e-06
9.71721e-07
3.40171e-06
-1.12914e-06
3.41933e-06
5.02692e-07
3.39916e-06
-1.83117e-07
3.45212e-06
1.16919e-06
3.41283e-06
-3.26961e-07
3.43362e-06
1.862e-07
3.4215e-06
3.12849e-07
3.40985e-06
-3.64913e-07
3.39547e-06
4.45247e-08
3.3852e-06
1.81969e-07
3.39305e-06
2.2567e-07
3.41736e-06
6.81072e-07
3.40902e-06
4.34201e-07
3.43582e-06
5.04902e-07
3.43545e-06
5.05156e-07
3.43858e-06
3.69863e-07
3.4479e-06
3.66541e-07
3.44247e-06
3.16156e-07
2.53257e-07
3.4443e-06
3.6087e-06
9.46433e-07
3.56436e-06
-1.0848e-06
3.58374e-06
4.83305e-07
3.56149e-06
-1.60864e-07
3.61648e-06
1.1142e-06
3.57571e-06
-2.8619e-07
3.59725e-06
1.64668e-07
3.58493e-06
3.2517e-07
3.57252e-06
-3.52504e-07
3.56004e-06
5.69986e-08
3.54792e-06
1.94089e-07
3.55614e-06
2.17455e-07
3.58064e-06
6.5657e-07
3.57241e-06
4.42431e-07
3.59809e-06
4.79222e-07
3.60008e-06
5.03166e-07
3.60093e-06
3.6901e-07
3.61162e-06
3.55856e-07
3.60793e-06
3.19844e-07
2.53803e-07
3.60738e-06
3.78107e-06
9.20069e-07
3.73489e-06
-1.03863e-06
3.75602e-06
4.62181e-07
3.73173e-06
-1.36577e-07
3.78854e-06
1.05738e-06
3.74648e-06
-2.44126e-07
3.76854e-06
1.42607e-07
3.75646e-06
3.37253e-07
3.74277e-06
-3.38813e-07
3.73257e-06
6.71928e-08
3.71867e-06
2.07995e-07
3.72696e-06
2.0916e-07
3.75203e-06
6.31496e-07
3.74374e-06
4.50724e-07
3.76814e-06
4.54826e-07
3.7728e-06
4.98503e-07
3.77144e-06
3.70367e-07
3.7828e-06
3.44496e-07
3.78153e-06
3.21117e-07
2.56521e-07
3.77881e-06
3.96163e-06
8.92632e-07
3.91371e-06
-9.90714e-07
3.93651e-06
4.39386e-07
3.91026e-06
-1.10324e-07
3.96862e-06
9.99018e-07
3.92555e-06
-2.01049e-07
3.94781e-06
1.2034e-07
3.93648e-06
3.48592e-07
3.92097e-06
-3.23306e-07
3.91339e-06
7.47711e-08
3.89789e-06
2.23497e-07
3.90578e-06
2.01265e-07
3.9318e-06
6.05481e-07
3.92343e-06
4.59096e-07
3.94613e-06
4.32125e-07
3.95385e-06
4.90779e-07
3.95063e-06
3.73585e-07
3.96168e-06
3.33449e-07
3.96342e-06
3.19371e-07
2.60785e-07
3.95916e-06
4.15074e-06
8.6414e-07
4.10121e-06
-9.41185e-07
4.12559e-06
4.1501e-07
4.09747e-06
-8.22046e-08
4.15708e-06
9.39404e-07
4.11338e-06
-1.57342e-07
4.13542e-06
9.82983e-08
4.12538e-06
3.5863e-07
4.10751e-06
-3.05439e-07
4.10282e-06
7.94665e-08
4.08607e-06
2.40242e-07
4.09294e-06
1.94394e-07
4.12019e-06
5.78234e-07
4.11192e-06
4.67365e-07
4.13236e-06
4.11684e-07
4.14344e-06
4.79705e-07
4.139e-06
3.78024e-07
4.14862e-06
3.23823e-07
4.15366e-06
3.1433e-07
2.6555e-07
4.1489e-06
4.34881e-06
8.34628e-07
4.2978e-06
-8.9017e-07
4.32364e-06
3.89166e-07
4.2938e-06
-5.23643e-08
4.3543e-06
8.78906e-07
4.31045e-06
-1.13493e-07
4.33171e-06
7.70408e-08
4.32358e-06
3.66757e-07
4.30283e-06
-2.84683e-07
4.30113e-06
8.11661e-08
4.28369e-06
2.57677e-07
4.28886e-06
1.89226e-07
4.31751e-06
5.49587e-07
4.30972e-06
4.75153e-07
4.32725e-06
3.94155e-07
4.34174e-06
4.65218e-07
4.33695e-06
3.82805e-07
4.34429e-06
3.16486e-07
4.35227e-06
3.06354e-07
2.69454e-07
4.34836e-06
4.55626e-06
8.04137e-07
4.50389e-06
-8.37795e-07
4.53108e-06
3.61977e-07
4.49972e-06
-2.10082e-08
4.56067e-06
8.1796e-07
4.51728e-06
-7.01053e-08
4.53707e-06
5.72464e-08
4.53151e-06
3.72322e-07
4.50745e-06
-2.60624e-07
4.50862e-06
7.99997e-08
4.49124e-06
2.75056e-07
4.49405e-06
1.86415e-07
4.52403e-06
5.19605e-07
4.5173e-06
4.81886e-07
4.53136e-06
3.80094e-07
4.54891e-06
4.4766e-07
4.54489e-06
3.86833e-07
4.54938e-06
3.11994e-07
4.55939e-06
2.96343e-07
2.71138e-07
4.55771e-06
4.77353e-06
7.7272e-07
4.71991e-06
-7.84176e-07
4.74832e-06
3.3357e-07
4.71572e-06
1.15925e-08
4.77659e-06
7.57085e-07
4.73438e-06
-2.78891e-08
4.75193e-06
3.96963e-08
4.74956e-06
3.74694e-07
4.72203e-06
-2.33098e-07
4.72561e-06
7.64166e-08
4.70915e-06
2.91517e-07
4.7091e-06
1.8647e-07
4.74013e-06
4.88575e-07
4.73511e-06
4.86906e-07
4.74537e-06
3.6983e-07
4.76523e-06
4.278e-07
4.76301e-06
3.89054e-07
4.76476e-06
3.10245e-07
4.77533e-06
2.85769e-07
2.69555e-07
4.77692e-06
5.00108e-06
7.40433e-07
4.94633e-06
-7.29421e-07
4.97581e-06
3.04093e-07
4.94232e-06
4.50831e-08
5.0025e-06
6.969e-07
4.96226e-06
1.23558e-08
4.97673e-06
2.52267e-08
4.97811e-06
3.73311e-07
4.94726e-06
-2.02248e-07
4.95251e-06
7.11628e-08
4.93786e-06
3.06172e-07
4.93468e-06
1.89651e-07
4.96618e-06
4.57068e-07
4.96358e-06
4.89507e-07
4.97e-06
3.63408e-07
4.99112e-06
4.0668e-07
4.99158e-06
3.88595e-07
4.99109e-06
3.10735e-07
5.00091e-06
2.75956e-07
2.64611e-07
5.00585e-06
5.23941e-06
7.07342e-07
5.18363e-06
-6.73648e-07
5.214e-06
2.73724e-07
5.18007e-06
7.90197e-08
5.23884e-06
6.38126e-07
5.20145e-06
4.97476e-08
5.21199e-06
1.46882e-08
5.21752e-06
3.67781e-07
5.18383e-06
-1.68561e-07
5.1898e-06
6.51911e-08
5.17776e-06
3.18216e-07
5.17146e-06
1.95952e-07
5.20271e-06
4.25817e-07
5.20314e-06
4.89071e-07
5.20597e-06
3.60585e-07
5.22711e-06
3.85531e-07
5.23084e-06
3.84875e-07
5.22899e-06
3.12581e-07
5.23697e-06
2.67977e-07
2.57024e-07
5.24456e-06
5.48901e-06
6.73523e-07
5.43236e-06
-6.16998e-07
5.46338e-06
2.42699e-07
5.42954e-06
1.12862e-07
5.4861e-06
5.81569e-07
5.45246e-06
8.33909e-08
5.4583e-06
8.84492e-09
5.46802e-06
3.58061e-07
5.43241e-06
-1.32956e-07
5.43804e-06
5.95664e-08
5.42925e-06
3.27004e-07
5.42012e-06
2.05081e-07
5.45026e-06
3.95674e-07
5.45418e-06
4.85153e-07
5.45395e-06
3.6082e-07
5.47398e-06
3.65503e-07
5.48107e-06
3.77784e-07
5.47887e-06
3.14781e-07
5.48454e-06
2.623e-07
2.48148e-07
5.49342e-06
5.75042e-06
6.39065e-07
5.69308e-06
-5.59665e-07
5.72445e-06
2.1133e-07
5.69133e-06
1.45989e-07
5.74481e-06
5.28086e-07
5.71577e-06
1.1243e-07
5.71636e-06
8.2542e-09
5.72989e-06
3.44532e-07
5.69359e-06
-9.66552e-08
5.69789e-06
5.52615e-08
5.6927e-06
3.32195e-07
5.6813e-06
2.16485e-07
5.70949e-06
3.67483e-07
5.71708e-06
4.7756e-07
5.71462e-06
3.63284e-07
5.73255e-06
3.47569e-07
5.74273e-06
3.67611e-07
5.74099e-06
3.16517e-07
5.7445e-06
2.58793e-07
2.39291e-07
5.75335e-06
6.02418e-06
6.04075e-07
5.96642e-06
-5.01906e-07
5.99773e-06
1.8002e-07
5.96602e-06
1.77702e-07
6.01555e-06
4.78554e-07
5.99186e-06
1.36119e-07
5.9871e-06
1.30167e-08
6.00354e-06
3.28088e-07
5.96787e-06
-6.09825e-08
5.97006e-06
5.30692e-08
5.96851e-06
3.33749e-07
5.9556e-06
2.29396e-07
5.98109e-06
3.41996e-07
5.99222e-06
4.66422e-07
5.98851e-06
3.66993e-07
6.00362e-06
3.32461e-07
6.0164e-06
3.54829e-07
6.01571e-06
3.17216e-07
6.01758e-06
2.56921e-07
2.31477e-07
6.02539e-06
6.31088e-06
5.68679e-07
6.25302e-06
-4.44044e-07
6.28379e-06
1.49256e-07
6.25424e-06
2.07251e-07
6.29897e-06
4.33824e-07
6.28119e-06
1.53896e-07
6.27147e-06
2.27391e-08
6.28952e-06
3.10042e-07
6.25571e-06
-2.71777e-08
6.25534e-06
5.34395e-08
6.2571e-06
3.31993e-07
6.24357e-06
2.42927e-07
6.26581e-06
3.19755e-07
6.28005e-06
4.52176e-07
6.27609e-06
3.70959e-07
6.28806e-06
3.20486e-07
6.30267e-06
3.40223e-07
6.30352e-06
3.16359e-07
6.30435e-06
2.56099e-07
2.25242e-07
6.31058e-06
6.61113e-06
5.3302e-07
6.55355e-06
-3.86468e-07
6.58322e-06
1.19587e-07
6.55659e-06
2.3388e-07
6.59577e-06
3.94651e-07
6.5842e-06
1.65462e-07
6.5703e-06
3.66361e-08
6.58849e-06
2.91853e-07
6.55757e-06
3.74772e-09
6.55449e-06
5.65148e-08
6.55899e-06
3.27491e-07
6.54571e-06
2.56204e-07
6.56441e-06
3.01055e-07
6.58109e-06
4.35499e-07
6.5778e-06
3.74246e-07
6.58662e-06
3.11667e-07
6.60222e-06
3.24629e-07
6.60505e-06
3.13524e-07
6.60514e-06
2.56014e-07
2.20483e-07
6.6099e-06
6.92555e-06
4.97261e-07
6.86869e-06
-3.29605e-07
6.89669e-06
9.15874e-08
6.8737e-06
2.56869e-07
6.90671e-06
3.61641e-07
6.9011e-06
1.71068e-07
6.88429e-06
5.34463e-08
6.90126e-06
2.7488e-07
6.87386e-06
3.11474e-08
6.86829e-06
6.20873e-08
6.8748e-06
3.20983e-07
6.86257e-06
2.68436e-07
6.87762e-06
2.86003e-07
6.896e-06
4.17124e-07
6.89417e-06
3.7607e-07
6.89997e-06
3.05869e-07
6.91579e-06
3.08809e-07
6.92089e-06
3.0842e-07
6.92057e-06
2.56338e-07
2.16921e-07
6.92413e-06
7.25482e-06
4.61578e-07
7.1991e-06
-2.7389e-07
7.22491e-06
6.57828e-08
7.20614e-06
2.75639e-07
7.23274e-06
3.35036e-07
7.23231e-06
1.71505e-07
7.21411e-06
7.16471e-08
7.22873e-06
2.60257e-07
7.20506e-06
5.48119e-08
7.1975e-06
6.96529e-08
7.20525e-06
3.13232e-07
7.19456e-06
2.79127e-07
7.20618e-06
2.74384e-07
7.22549e-06
3.97815e-07
7.22566e-06
3.75897e-07
7.22891e-06
3.02621e-07
7.24406e-06
2.9366e-07
7.25162e-06
3.00861e-07
7.25135e-06
2.56603e-07
2.14419e-07
7.25385e-06
7.59964e-06
4.26164e-07
7.5455e-06
-2.19752e-07
7.56865e-06
4.26318e-08
7.55453e-06
2.89757e-07
7.57483e-06
3.1474e-07
7.57849e-06
1.6785e-07
7.56037e-06
8.97622e-08
7.57182e-06
2.48812e-07
7.55166e-06
7.49629e-08
7.54279e-06
7.85235e-08
7.55115e-06
3.04871e-07
7.54221e-06
2.88071e-07
7.55076e-06
2.65838e-07
7.57042e-06
3.78153e-07
7.57277e-06
3.73545e-07
7.57418e-06
3.01215e-07
7.5879e-06
2.79935e-07
7.59775e-06
2.91017e-07
7.59816e-06
2.56188e-07
2.12901e-07
7.59968e-06
7.96075e-06
3.91225e-07
7.9086e-06
-1.67597e-07
7.92874e-06
2.24874e-08
7.91953e-06
2.98963e-07
7.93386e-06
3.00413e-07
7.94034e-06
1.61367e-07
7.92371e-06
1.064e-07
7.93151e-06
2.41005e-07
7.91422e-06
9.22593e-08
7.9048e-06
8.79434e-08
7.91333e-06
2.96344e-07
7.90607e-06
2.95322e-07
7.91197e-06
2.59937e-07
7.93145e-06
3.58681e-07
7.93619e-06
3.68806e-07
7.93651e-06
3.00892e-07
7.94823e-06
2.68213e-07
7.9598e-06
2.79449e-07
7.96167e-06
2.54319e-07
2.1223e-07
7.96234e-06
8.33892e-06
3.56987e-07
8.28916e-06
-1.17842e-07
8.30599e-06
5.66065e-09
8.3018e-06
3.03155e-07
8.31076e-06
2.91454e-07
8.31867e-06
1.53453e-07
8.30462e-06
1.20446e-07
8.30882e-06
2.36806e-07
8.29343e-06
1.07652e-07
8.28403e-06
9.73429e-08
8.29244e-06
2.87932e-07
8.28686e-06
3.00903e-07
8.29049e-06
2.56306e-07
8.30932e-06
3.39853e-07
8.31661e-06
3.61517e-07
8.31664e-06
3.00865e-07
8.32599e-06
2.58857e-07
8.33858e-06
2.66859e-07
8.34247e-06
2.50427e-07
2.12086e-07
8.34262e-06
8.73494e-06
3.23707e-07
8.68806e-06
-7.09601e-08
8.70118e-06
-7.45846e-09
8.70206e-06
3.02278e-07
8.70634e-06
2.87173e-07
8.71432e-06
1.45476e-07
8.70358e-06
1.31178e-07
8.7047e-06
2.3569e-07
8.69021e-06
1.22138e-07
8.68089e-06
1.06671e-07
8.68921e-06
2.79608e-07
8.6854e-06
3.04717e-07
8.68712e-06
2.54582e-07
8.70498e-06
3.21991e-07
8.71486e-06
3.51641e-07
8.71522e-06
3.00506e-07
8.72229e-06
2.51788e-07
8.73498e-06
2.54164e-07
8.74111e-06
2.44303e-07
2.11788e-07
8.7414e-06
9.14966e-06
2.91662e-07
9.10621e-06
-2.75026e-08
9.11513e-06
-1.63829e-08
9.12099e-06
2.96417e-07
9.12152e-06
2.86645e-07
9.12808e-06
1.3891e-07
9.12099e-06
1.38277e-07
9.12003e-06
2.36643e-07
9.10558e-06
1.36587e-07
9.09615e-06
1.161e-07
9.10464e-06
2.7112e-07
9.10269e-06
3.06669e-07
9.10297e-06
2.543e-07
9.11959e-06
3.05376e-07
9.13173e-06
3.39503e-07
9.13306e-06
2.99172e-07
9.13814e-06
2.46709e-07
9.15012e-06
2.42186e-07
9.15813e-06
2.36285e-07
2.10488e-07
9.15943e-06
9.58397e-06
2.6115e-07
9.54454e-06
1.19252e-08
9.54877e-06
-2.0605e-08
9.55931e-06
2.85878e-07
9.55722e-06
2.88732e-07
9.56072e-06
1.35408e-07
9.55728e-06
1.41721e-07
9.55554e-06
2.38382e-07
9.54083e-06
1.51297e-07
9.53118e-06
1.25751e-07
9.54004e-06
2.62255e-07
9.54e-06
3.06712e-07
9.53935e-06
2.54952e-07
9.55436e-06
2.90362e-07
9.56817e-06
3.25695e-07
9.57092e-06
2.96421e-07
9.57459e-06
2.43041e-07
9.58517e-06
2.31605e-07
9.59443e-06
2.27018e-07
2.07598e-07
9.59732e-06
1.00388e-05
2.32471e-07
1.0004e-05
4.67077e-08
1.00031e-05
-1.96996e-08
1.00178e-05
2.71237e-07
1.00145e-05
2.91952e-07
1.00138e-05
1.36137e-07
1.00131e-05
1.42445e-07
1.00119e-05
2.39576e-07
9.9974e-06
1.65798e-07
9.98731e-06
1.35843e-07
9.99635e-06
2.5321e-07
9.99837e-06
3.04695e-07
9.99727e-06
2.56052e-07
1.00103e-05
2.77341e-07
1.00252e-05
3.10758e-07
1.00297e-05
2.91973e-07
1.00325e-05
2.4026e-07
1.00413e-05
2.22714e-07
1.00511e-05
2.17237e-07
2.03013e-07
1.00557e-05
1.05152e-05
2.05893e-07
1.04856e-05
7.6342e-08
1.04795e-05
-1.35827e-08
1.04973e-05
2.53419e-07
1.04946e-05
2.94646e-07
1.04895e-05
1.41236e-07
1.049e-05
1.41946e-07
1.04901e-05
2.39457e-07
1.04764e-05
1.79511e-07
1.04658e-05
1.46461e-07
1.04746e-05
2.44358e-07
1.04786e-05
3.00678e-07
1.04776e-05
2.57053e-07
1.04885e-05
2.66446e-07
1.05039e-05
2.95374e-07
1.05102e-05
2.85701e-07
1.05127e-05
2.37795e-07
1.05199e-05
2.15506e-07
1.05295e-05
2.07648e-07
1.96997e-07
1.05355e-05
1.10143e-05
1.81608e-07
1.099e-05
1.00595e-07
1.09793e-05
-2.82692e-09
1.09988e-05
2.33951e-07
1.09982e-05
2.95226e-07
1.09894e-05
1.50005e-07
1.09898e-05
1.41518e-07
1.09914e-05
2.37931e-07
1.09788e-05
1.92122e-07
1.09678e-05
1.57459e-07
1.0976e-05
2.36118e-07
1.09819e-05
2.94803e-07
1.09814e-05
2.57534e-07
1.09902e-05
2.57618e-07
1.10054e-05
2.80198e-07
1.10134e-05
2.77664e-07
1.10161e-05
2.35139e-07
1.10219e-05
2.09717e-07
1.10308e-05
1.98706e-07
1.90114e-07
1.10377e-05
1.15372e-05
1.59729e-07
1.15183e-05
1.19549e-07
1.15041e-05
1.141e-08
1.15233e-05
2.14667e-07
1.1526e-05
2.92563e-07
1.15147e-05
1.61289e-07
1.1514e-05
1.42263e-07
1.15167e-05
2.35173e-07
1.15056e-05
2.03258e-07
1.14944e-05
1.68606e-07
1.15016e-05
2.28957e-07
1.15091e-05
2.87336e-07
1.15094e-05
2.57178e-07
1.15165e-05
2.50591e-07
1.15309e-05
2.65769e-07
1.15404e-05
2.68136e-07
1.15437e-05
2.31838e-07
1.15484e-05
2.05028e-07
1.15565e-05
1.906e-07
1.8292e-07
1.15637e-05
1.20853e-05
1.40285e-07
1.20713e-05
1.335e-07
1.20549e-05
2.78462e-08
1.20725e-05
1.96997e-07
1.20786e-05
2.86536e-07
1.20664e-05
1.73505e-07
1.20637e-05
1.44892e-07
1.20673e-05
2.31642e-07
1.2058e-05
2.12565e-07
1.20469e-05
1.79692e-07
1.20528e-05
2.23056e-07
1.20613e-05
2.78765e-07
1.20629e-05
2.55657e-07
1.20684e-05
2.45038e-07
1.20817e-05
2.52532e-07
1.20922e-05
2.57575e-07
1.20966e-05
2.27479e-07
1.21006e-05
2.01025e-07
1.21077e-05
1.835e-07
1.75691e-07
1.21149e-05
1.26597e-05
1.23216e-07
1.26502e-05
1.42966e-07
1.26329e-05
4.51826e-08
1.26479e-05
1.81908e-07
1.26569e-05
2.77629e-07
1.26452e-05
1.85186e-07
1.26405e-05
1.49551e-07
1.26441e-05
2.28025e-07
1.26368e-05
2.19921e-07
1.26262e-05
1.90302e-07
1.26308e-05
2.18434e-07
1.26399e-05
2.69632e-07
1.26427e-05
2.52838e-07
1.26473e-05
2.40439e-07
1.26591e-05
2.40818e-07
1.26701e-05
2.46497e-07
1.26757e-05
2.21877e-07
1.26795e-05
1.97242e-07
1.26856e-05
1.77407e-07
1.68662e-07
1.26926e-05
1.32618e-05
1.08388e-07
1.32561e-05
1.48658e-07
1.3239e-05
6.22036e-08
1.32511e-05
1.69901e-07
1.3262e-05
2.66688e-07
1.32519e-05
1.95271e-07
1.32456e-05
1.55861e-07
1.32486e-05
2.25041e-07
1.32432e-05
2.2535e-07
1.32335e-05
1.9998e-07
1.32368e-05
2.15065e-07
1.32462e-05
2.603e-07
1.32502e-05
2.48772e-07
1.32544e-05
2.36288e-07
1.32645e-05
2.30677e-07
1.32756e-05
2.35469e-07
1.32823e-05
2.15119e-07
1.32864e-05
1.93196e-07
1.32916e-05
1.72177e-07
1.62073e-07
1.32982e-05
1.38929e-05
9.56204e-08
1.38903e-05
1.51262e-07
1.38745e-05
7.80182e-08
1.38835e-05
1.60866e-07
1.38953e-05
2.54978e-07
1.38872e-05
2.03358e-07
1.38799e-05
1.63141e-07
1.3882e-05
2.22977e-07
1.38783e-05
2.28993e-07
1.38699e-05
2.0835e-07
1.38723e-05
2.12735e-07
1.38815e-05
2.51123e-07
1.38867e-05
2.43502e-07
1.38908e-05
2.32248e-07
1.38995e-05
2.21935e-07
1.39101e-05
2.24881e-07
1.39176e-05
2.07612e-07
1.39223e-05
1.88498e-07
1.39271e-05
1.67409e-07
1.56174e-07
1.3933e-05
1.45546e-05
8.46939e-08
1.4554e-05
1.51836e-07
1.45403e-05
9.17123e-08
1.45469e-05
1.54269e-07
1.4558e-05
2.43941e-07
1.45513e-05
2.09983e-07
1.4544e-05
1.70475e-07
1.45457e-05
2.21249e-07
1.45437e-05
2.30989e-07
1.45369e-05
2.15193e-07
1.45384e-05
2.11217e-07
1.45471e-05
2.42384e-07
1.45535e-05
2.3719e-07
1.45577e-05
2.27995e-07
1.45653e-05
2.1435e-07
1.45752e-05
2.14934e-07
1.45832e-05
1.9969e-07
1.45885e-05
1.83195e-07
1.45932e-05
1.62653e-07
1.50946e-07
1.45984e-05
1.52481e-05
7.54952e-08
1.52491e-05
1.50852e-07
1.52386e-05
1.0215e-07
1.52421e-05
1.50819e-07
1.52507e-05
2.35329e-07
1.5245e-05
2.1563e-07
1.5239e-05
1.76525e-07
1.52412e-05
2.19049e-07
1.52409e-05
2.3128e-07
1.52356e-05
2.20485e-07
1.52366e-05
2.10221e-07
1.52448e-05
2.34234e-07
1.52519e-05
2.30027e-07
1.52566e-05
2.23285e-07
1.52634e-05
2.07602e-07
1.52725e-05
2.05783e-07
1.52806e-05
1.91616e-07
1.52863e-05
1.77471e-07
1.52913e-05
1.57688e-07
1.46038e-07
1.52962e-05
1.59753e-05
6.756e-08
1.59823e-05
1.43787e-07
1.59712e-05
1.13256e-07
1.59681e-05
1.5399e-07
1.59754e-05
2.27957e-07
1.59719e-05
2.19107e-07
1.59673e-05
1.81183e-07
1.59701e-05
2.16275e-07
1.59715e-05
2.2986e-07
1.59676e-05
2.24338e-07
1.59683e-05
2.09534e-07
1.59758e-05
2.26759e-07
1.59835e-05
2.22346e-07
1.5989e-05
2.17807e-07
1.59951e-05
2.01438e-07
1.60035e-05
1.97424e-07
1.60115e-05
1.83574e-07
1.60176e-05
1.71427e-07
1.60227e-05
1.52526e-07
1.41138e-07
1.60276e-05
1.67366e-05
6.15625e-08
1.67339e-05
1.4649e-07
1.67247e-05
1.22434e-07
1.6727e-05
1.51739e-07
1.67363e-05
2.18665e-07
1.67347e-05
2.20681e-07
1.67309e-05
1.84965e-07
1.6734e-05
2.13171e-07
1.6737e-05
2.26829e-07
1.67347e-05
2.26681e-07
1.67353e-05
2.0898e-07
1.6742e-05
2.19966e-07
1.675e-05
2.14418e-07
1.67562e-05
2.11538e-07
1.67623e-05
1.95379e-07
1.67697e-05
1.89977e-07
1.67776e-05
1.75726e-07
1.67839e-05
1.65087e-07
1.67891e-05
1.47346e-07
1.36086e-07
1.67942e-05
1.75354e-05
5.65555e-08
1.75383e-05
1.43583e-07
1.75278e-05
1.32927e-07
1.75257e-05
1.53771e-07
1.75344e-05
2.10018e-07
1.75343e-05
2.20807e-07
1.75312e-05
1.88067e-07
1.75346e-05
2.09727e-07
1.7539e-05
2.22437e-07
1.75383e-05
2.2741e-07
1.75389e-05
2.0835e-07
1.75448e-05
2.14051e-07
1.75529e-05
2.06363e-07
1.75597e-05
2.04669e-07
1.75661e-05
1.89036e-07
1.7573e-05
1.83052e-07
1.75804e-05
1.68354e-07
1.7587e-05
1.58459e-07
1.75922e-05
1.42126e-07
1.30969e-07
1.75973e-05
1.83721e-05
5.28363e-08
1.83735e-05
1.42197e-07
1.83657e-05
1.40649e-07
1.83639e-05
1.55626e-07
1.83718e-05
2.02075e-07
1.83727e-05
2.19904e-07
1.83699e-05
1.90842e-07
1.83733e-05
2.06334e-07
1.8379e-05
2.1676e-07
1.83802e-05
2.26198e-07
1.83812e-05
2.07416e-07
1.83863e-05
2.08898e-07
1.83941e-05
1.98616e-07
1.84015e-05
1.97276e-07
1.84081e-05
1.82354e-07
1.8415e-05
1.76207e-07
1.84218e-05
1.61534e-07
1.84285e-05
1.51789e-07
1.84339e-05
1.3671e-07
1.2595e-07
1.84389e-05
1.92493e-05
4.99703e-08
1.92516e-05
1.39832e-07
1.92451e-05
1.47205e-07
1.92426e-05
1.58046e-07
1.92499e-05
1.94804e-07
1.92518e-05
2.1798e-07
1.92495e-05
1.93154e-07
1.92523e-05
2.03568e-07
1.92588e-05
2.10221e-07
1.9262e-05
2.22998e-07
1.92636e-05
2.0588e-07
1.92682e-05
2.0426e-07
1.92753e-05
1.91489e-07
1.92831e-05
1.89528e-07
1.92901e-05
1.75356e-07
1.92971e-05
1.69177e-07
1.93037e-05
1.54936e-07