/*--------------------------------*- C++ -*----------------------------------*\
| =========                 |                                                 |
| \\      /  F ield         | OpenFOAM: The Open Source CFD Toolbox           |
|  \\    /   O peration     | Version:  2506                                  |
|   \\  /    A nd           | Website:  www.openfoam.com                      |
|    \\/     M anipulation  |                                                 |
\*---------------------------------------------------------------------------*/
FoamFile
{
    version     2.0;
    format      ascii;
    arch        "LSB;label=32;scalar=64";
    class       surfaceScalarField;
    location    "7.25";
    object      phi;
}
// * * * * * * * * * * * * * * * * * * * * * * * * * * * * * * * * * * * * * //

dimensions      [0 3 -1 0 0 0 0];

oriented        oriented;

internalField   nonuniform List<scalar> 
19000
(
1.11902e-06
2.72611e-07
1.16289e-06
-1.62491e-07
1.21133e-06
-1.73647e-06
1.26288e-06
-1.04157e-07
1.21286e-06
8.75765e-07
1.19994e-06
1.35045e-06
1.16524e-06
-6.19176e-08
1.12934e-06
-8.06583e-07
1.13803e-06
-1.92037e-06
1.15666e-06
-1.82914e-06
1.198e-06
-1.49881e-06
1.22019e-06
-7.51905e-07
1.22295e-06
-1.62594e-07
1.20167e-06
1.95737e-08
1.20098e-06
6.11277e-07
1.16422e-06
-5.61783e-08
1.18916e-06
5.04898e-07
1.15625e-06
-2.17764e-07
1.18381e-06
1.50856e-07
-4.4614e-07
1.10327e-06
1.16494e-06
3.31935e-07
1.20897e-06
-2.06528e-07
1.26619e-06
-1.79368e-06
1.32576e-06
-1.63732e-07
1.26678e-06
9.34748e-07
1.27153e-06
1.3457e-06
1.23275e-06
-2.31439e-08
1.20064e-06
-7.74469e-07
1.18944e-06
-1.90916e-06
1.19606e-06
-1.83577e-06
1.24102e-06
-1.54377e-06
1.27083e-06
-7.81712e-07
1.27422e-06
-1.65986e-07
1.26318e-06
3.06116e-08
1.25156e-06
6.22898e-07
1.2338e-06
-3.84118e-08
1.23988e-06
4.98814e-07
1.23844e-06
-2.16326e-07
1.24025e-06
1.49051e-07
-4.11977e-07
1.20608e-06
1.21401e-06
4.00713e-07
1.25242e-06
-2.44943e-07
1.31596e-06
-1.85722e-06
1.38541e-06
-2.33182e-07
1.33308e-06
9.8708e-07
1.33837e-06
1.34041e-06
1.30453e-06
1.06951e-08
1.27033e-06
-7.40264e-07
1.24396e-06
-1.8828e-06
1.24757e-06
-1.83937e-06
1.2832e-06
-1.5794e-06
1.31847e-06
-8.16982e-07
1.32645e-06
-1.73968e-07
1.32064e-06
3.64222e-08
1.31798e-06
6.2556e-07
1.30605e-06
-2.64875e-08
1.32281e-06
4.82058e-07
1.32257e-06
-2.16086e-07
1.33616e-06
1.35464e-07
-3.77648e-07
1.30183e-06
1.27136e-06
4.73452e-07
1.29963e-06
-2.73213e-07
1.361e-06
-1.91859e-06
1.43784e-06
-3.10022e-07
1.40761e-06
1.01732e-06
1.40946e-06
1.33856e-06
1.38044e-06
3.97089e-08
1.3445e-06
-7.04316e-07
1.30666e-06
-1.84496e-06
1.30319e-06
-1.8359e-06
1.32739e-06
-1.6036e-06
1.36346e-06
-8.53044e-07
1.37877e-06
-1.89279e-07
1.37799e-06
3.71947e-08
1.38674e-06
6.16817e-07
1.38209e-06
-2.18422e-08
1.40451e-06
4.59642e-07
1.40328e-06
-2.14861e-07
1.41842e-06
1.20329e-07
-3.37061e-07
1.37783e-06
1.34066e-06
5.41147e-07
1.35465e-06
-2.87204e-07
1.40606e-06
-1.97e-06
1.48489e-06
-3.88846e-07
1.48428e-06
1.01792e-06
1.48513e-06
1.33771e-06
1.45899e-06
6.58513e-08
1.42178e-06
-6.67104e-07
1.37648e-06
-1.79967e-06
1.36453e-06
-1.82395e-06
1.37747e-06
-1.61654e-06
1.41066e-06
-8.86237e-07
1.43172e-06
-2.10338e-07
1.43838e-06
3.05365e-08
1.45786e-06
5.97334e-07
1.46115e-06
-2.51246e-08
1.48929e-06
4.31502e-07
1.4863e-06
-2.11876e-07
1.50191e-06
1.04717e-07
-2.92436e-07
1.45729e-06
1.42207e-06
5.94751e-07
1.42002e-06
-2.85156e-07
1.45661e-06
-2.00659e-06
1.5328e-06
-4.65038e-07
1.5597e-06
9.91025e-07
1.56405e-06
1.33336e-06
1.53921e-06
9.06932e-08
1.50129e-06
-6.29182e-07
1.45048e-06
-1.74886e-06
1.4307e-06
-1.80418e-06
1.43415e-06
-1.61999e-06
1.46337e-06
-9.15461e-07
1.48841e-06
-2.35369e-07
1.50391e-06
1.50353e-08
1.53388e-06
5.67365e-07
1.54466e-06
-3.59122e-08
1.57773e-06
3.98434e-07
1.57206e-06
-2.06206e-07
1.58686e-06
8.99157e-08
-2.44197e-07
1.53862e-06
1.51206e-06
6.28911e-07
1.49584e-06
-2.68936e-07
1.51569e-06
-2.02644e-06
1.58667e-06
-5.36014e-07
1.63384e-06
9.43846e-07
1.64428e-06
1.32293e-06
1.62014e-06
1.14831e-07
1.5824e-06
-5.91444e-07
1.52753e-06
-1.69399e-06
1.50142e-06
-1.77807e-06
1.49749e-06
-1.61605e-06
1.52339e-06
-9.41369e-07
1.55182e-06
-2.63794e-07
1.57653e-06
-9.68077e-09
1.61606e-06
5.27842e-07
1.63262e-06
-5.24711e-08
1.6689e-06
3.62156e-07
1.65896e-06
-1.96272e-07
1.67171e-06
7.71692e-08
-1.92821e-07
1.62033e-06
1.6055e-06
6.43544e-07
1.57998e-06
-2.43422e-07
1.58332e-06
-2.02978e-06
1.64748e-06
-6.00173e-07
1.70723e-06
8.84092e-07
1.724e-06
1.30615e-06
1.70096e-06
1.37877e-07
1.66476e-06
-5.55243e-07
1.60729e-06
-1.63653e-06
1.57638e-06
-1.74715e-06
1.56706e-06
-1.60673e-06
1.59133e-06
-9.65637e-07
1.62342e-06
-2.95886e-07
1.65703e-06
-4.32896e-08
1.70418e-06
4.80691e-07
1.72348e-06
-7.17777e-08
1.7606e-06
3.2504e-07
1.74482e-06
-1.80495e-07
1.75437e-06
6.76182e-08
-1.39264e-07
1.70082e-06
1.69849e-06
6.42628e-07
1.66954e-06
-2.14473e-07
1.65787e-06
-2.01811e-06
1.71325e-06
-6.55554e-07
1.77933e-06
8.1801e-07
1.80192e-06
1.28357e-06
1.78122e-06
1.58577e-07
1.74836e-06
-5.22388e-07
1.69006e-06
-1.57822e-06
1.65563e-06
-1.71273e-06
1.64221e-06
-1.59332e-06
1.66639e-06
-9.89811e-07
1.70252e-06
-3.32017e-07
1.7439e-06
-8.46663e-08
1.79601e-06
4.2858e-07
1.81436e-06
-9.0133e-08
1.84987e-06
2.89534e-07
1.82731e-06
-1.57936e-07
1.83297e-06
6.19594e-08
-8.50772e-08
1.77878e-06
1.78976e-06
6.31593e-07
1.76211e-06
-1.86822e-07
1.73784e-06
-1.99384e-06
1.78211e-06
-6.99822e-07
1.84972e-06
7.50396e-07
1.87792e-06
1.25537e-06
1.86119e-06
1.75308e-07
1.83333e-06
-4.94528e-07
1.77605e-06
-1.52095e-06
1.73937e-06
-1.67605e-06
1.72227e-06
-1.57622e-06
1.74662e-06
-1.01416e-06
1.78629e-06
-3.71683e-07
1.83326e-06
-1.31638e-07
1.88742e-06
3.74422e-07
1.90147e-06
-1.04187e-07
1.93355e-06
2.57457e-07
1.9045e-06
-1.28886e-07
1.90628e-06
6.01819e-08
-3.23952e-08
1.8536e-06
1.88021e-06
6.15136e-07
1.85643e-06
-1.63049e-07
1.8226e-06
-1.96001e-06
1.85431e-06
-7.31527e-07
1.91977e-06
6.84932e-07
1.95347e-06
1.22167e-06
1.94186e-06
1.86913e-07
1.91993e-06
-4.72596e-07
1.86537e-06
-1.46639e-06
1.8278e-06
-1.63847e-06
1.80686e-06
-1.55528e-06
1.82988e-06
-1.03718e-06
1.87102e-06
-4.12831e-07
1.92022e-06
-1.80831e-07
1.97377e-06
3.20866e-07
1.98151e-06
-1.11926e-07
2.00948e-06
2.29491e-07
1.97569e-06
-9.50995e-08
1.97437e-06
6.1498e-08
1.63179e-08
1.92566e-06
1.97162e-06
5.96353e-07
1.95239e-06
-1.43816e-07
1.91226e-06
-1.91987e-06
1.93187e-06
-7.51145e-07
1.99261e-06
6.242e-07
2.03105e-06
1.18323e-06
2.02465e-06
1.93312e-07
2.00866e-06
-4.56603e-07
1.95798e-06
-1.41571e-06
1.92087e-06
-1.60136e-06
1.89593e-06
-1.53034e-06
1.91493e-06
-1.05618e-06
1.9542e-06
-4.521e-07
2.00137e-06
-2.28e-07
2.05226e-06
2.69974e-07
2.05344e-06
-1.13098e-07
2.07776e-06
2.0517e-07
2.0421e-06
-5.9441e-08
2.03899e-06
6.46061e-08
5.8724e-08
1.99659e-06
2.06562e-06
5.76924e-07
2.05055e-06
-1.28749e-07
2.00706e-06
-1.87638e-06
2.01673e-06
-7.60822e-07
2.07128e-06
5.69655e-07
2.11295e-06
1.14156e-06
2.11091e-06
1.95354e-07
2.1002e-06
-4.45898e-07
2.05387e-06
-1.36938e-06
2.0183e-06
-1.56579e-06
1.98965e-06
-1.50169e-06
2.00205e-06
-1.06858e-06
2.03593e-06
-4.85977e-07
2.07691e-06
-2.6898e-07
2.12376e-06
2.23125e-07
2.11954e-06
-1.08878e-07
2.14134e-06
1.83369e-07
2.10697e-06
-2.50718e-08
2.10342e-06
6.8155e-08
9.31911e-08
2.06895e-06
2.16328e-06
5.57647e-07
2.15172e-06
-1.17195e-07
2.10703e-06
-1.83169e-06
2.10939e-06
-7.6318e-07
2.15722e-06
5.21821e-07
2.20047e-06
1.09831e-06
2.20169e-06
1.94135e-07
2.19537e-06
-4.39581e-07
2.1532e-06
-1.32721e-06
2.11969e-06
-1.53229e-06
2.08814e-06
-1.47014e-06
2.09258e-06
-1.07302e-06
2.11873e-06
-5.12122e-07
2.1506e-06
-3.00854e-07
2.1927e-06
1.81025e-07
2.1849e-06
-1.01082e-07
2.2053e-06
1.62978e-07
2.17475e-06
5.47013e-09
2.17167e-06
7.12387e-08
1.1908e-07
2.14578e-06
2.26528e-06
5.38853e-07
2.25665e-06
-1.08564e-07
2.21197e-06
-1.787e-06
2.2091e-06
-7.60315e-07
2.25036e-06
4.80567e-07
2.29409e-06
1.05459e-06
2.29778e-06
1.90439e-07
2.29499e-06
-4.36792e-07
2.25635e-06
-1.28856e-06
2.22484e-06
-1.50078e-06
2.19144e-06
-1.43674e-06
2.18811e-06
-1.06969e-06
2.20604e-06
-5.30054e-07
2.22785e-06
-3.22667e-07
2.26512e-06
1.43757e-07
2.25547e-06
-9.14312e-08
2.27507e-06
1.43383e-07
2.24975e-06
3.07901e-08
2.24739e-06
7.35937e-08
1.36774e-07
2.2297e-06
2.3721e-06
5.20626e-07
2.36589e-06
-1.02353e-07
2.32162e-06
-1.74274e-06
2.3149e-06
-7.53593e-07
2.35016e-06
4.45307e-07
2.39401e-06
1.01074e-06
2.39978e-06
1.84671e-07
2.39976e-06
-4.36775e-07
2.36383e-06
-1.25263e-06
2.33382e-06
-1.47077e-06
2.29951e-06
-1.40243e-06
2.28973e-06
-1.05991e-06
2.30056e-06
-5.40891e-07
2.31324e-06
-3.3534e-07
2.34608e-06
1.10911e-07
2.33584e-06
-8.11907e-08
2.35467e-06
1.24558e-07
2.33484e-06
5.06223e-08
2.33306e-06
7.53746e-08
1.47508e-07
2.32232e-06
2.48411e-06
5.02909e-07
2.47985e-06
-9.80952e-08
2.43592e-06
-1.6988e-06
2.42628e-06
-7.43957e-07
2.45643e-06
4.15159e-07
2.50048e-06
9.66684e-07
2.50808e-06
1.77079e-07
2.51014e-06
-4.38836e-07
2.47618e-06
-1.21867e-06
2.44699e-06
-1.44158e-06
2.41242e-06
-1.36786e-06
2.39785e-06
-1.04534e-06
2.40347e-06
-5.46512e-07
2.40904e-06
-3.4091e-07
2.43817e-06
8.17854e-08
2.42814e-06
-7.11655e-08
2.44586e-06
1.06838e-07
2.43102e-06
6.54611e-08
2.42945e-06
7.6951e-08
1.52841e-07
2.42412e-06
2.60162e-06
4.85586e-07
2.59889e-06
-9.53712e-08
2.55499e-06
-1.6549e-06
2.54326e-06
-7.3222e-07
2.56931e-06
3.89103e-07
2.61376e-06
9.22237e-07
2.62293e-06
1.67911e-07
2.62641e-06
-4.42322e-07
2.59383e-06
-1.18609e-06
2.56481e-06
-1.41256e-06
2.53035e-06
-1.33341e-06
2.51246e-06
-1.02744e-06
2.51469e-06
-5.4874e-07
2.51542e-06
-3.41649e-07
2.54156e-06
5.56486e-08
2.53226e-06
-6.18599e-08
2.54848e-06
9.06152e-08
2.53782e-06
7.61173e-08
2.53611e-06
7.86595e-08
1.54266e-07
2.53469e-06
2.72487e-06
4.68543e-07
2.72334e-06
-9.38386e-08
2.67916e-06
-1.61072e-06
2.66607e-06
-7.19137e-07
2.68902e-06
3.66155e-07
2.73397e-06
8.77285e-07
2.74446e-06
1.57427e-07
2.74877e-06
-4.46639e-07
2.71716e-06
-1.15448e-06
2.6878e-06
-1.38319e-06
2.65358e-06
-1.29919e-06
2.63342e-06
-1.00728e-06
2.63358e-06
-5.489e-07
2.6314e-06
-3.39473e-07
2.65513e-06
3.19228e-08
2.64688e-06
-5.36149e-08
2.66133e-06
7.61643e-08
2.65407e-06
8.33781e-08
2.65209e-06
8.06404e-08
1.5303e-07
2.65333e-06
2.8541e-06
4.51707e-07
2.85352e-06
-9.32547e-08
2.80878e-06
-1.56598e-06
2.79499e-06
-7.05349e-07
2.81569e-06
3.45462e-07
2.86116e-06
8.31815e-07
2.87273e-06
1.45851e-07
2.87737e-06
-4.51272e-07
2.84648e-06
-1.12359e-06
2.8164e-06
-1.35312e-06
2.78242e-06
-1.26521e-06
2.76069e-06
-9.85555e-07
2.75956e-06
-5.47766e-07
2.75582e-06
-3.35737e-07
2.77752e-06
1.02221e-08
2.77057e-06
-4.66555e-08
2.78317e-06
6.35619e-08
2.77867e-06
8.78739e-08
2.77646e-06
8.28476e-08
1.50051e-07
2.77944e-06
2.98955e-06
4.35054e-07
2.98976e-06
-9.34629e-08
2.94425e-06
-1.52048e-06
2.93024e-06
-6.91332e-07
2.94937e-06
3.26332e-07
2.9953e-06
7.85883e-07
3.00781e-06
1.33336e-07
3.01233e-06
-4.5579e-07
2.98202e-06
-1.09327e-06
2.95103e-06
-1.32213e-06
2.91722e-06
-1.2314e-06
2.89439e-06
-9.62728e-07
2.89232e-06
-5.45698e-07
2.88788e-06
-3.31297e-07
2.9078e-06
-9.69618e-09
2.90224e-06
-4.10975e-08
2.91309e-06
5.2709e-08
2.91089e-06
9.00792e-08
2.90862e-06
8.51126e-08
1.45974e-07
2.9127e-06
3.13146e-06
4.18595e-07
3.13236e-06
-9.4362e-08
3.08596e-06
-1.47407e-06
3.07204e-06
-6.77407e-07
3.09016e-06
3.08212e-07
3.13644e-06
7.39601e-07
3.14979e-06
1.19981e-07
3.15384e-06
-4.59842e-07
3.12402e-06
-1.06345e-06
3.09207e-06
-1.29018e-06
3.05832e-06
-1.19765e-06
3.03474e-06
-9.39148e-07
3.03186e-06
-5.42814e-07
3.02723e-06
-3.26673e-07
3.04551e-06
-2.79732e-08
3.04139e-06
-3.69809e-08
3.05069e-06
4.3417e-08
3.05041e-06
9.03561e-08
3.04827e-06
8.72465e-08
1.41224e-07
3.05303e-06
3.28014e-06
4.02364e-07
3.28166e-06
-9.58771e-08
3.2343e-06
-1.42672e-06
3.22065e-06
-6.63757e-07
3.2382e-06
2.90662e-07
3.28467e-06
6.9313e-07
3.2988e-06
1.05851e-07
3.30211e-06
-4.6315e-07
3.27272e-06
-1.03405e-06
3.23987e-06
-1.25734e-06
3.20609e-06
-1.16386e-06
3.18204e-06
-9.15101e-07
3.17838e-06
-5.3915e-07
3.17386e-06
-3.22155e-07
3.19059e-06
-4.47044e-08
3.1879e-06
-3.42919e-08
3.19583e-06
3.54935e-08
3.19718e-06
8.89999e-08
3.19535e-06
8.90799e-08
1.36098e-07
3.20047e-06
3.4359e-06
3.86394e-07
3.43797e-06
-9.79414e-08
3.38969e-06
-1.37845e-06
3.37638e-06
-6.50445e-07
3.39371e-06
2.73337e-07
3.44017e-06
6.46663e-07
3.45503e-06
9.09923e-08
3.45741e-06
-4.65524e-07
3.42838e-06
-1.00502e-06
3.39477e-06
-1.22373e-06
3.36089e-06
-1.12998e-06
3.33659e-06
-8.90801e-07
3.33218e-06
-5.34736e-07
3.32791e-06
-3.17888e-07
3.34316e-06
-5.99562e-08
3.34185e-06
-3.2981e-08
3.34858e-06
2.87705e-08
3.3513e-06
8.6271e-08
3.34991e-06
9.04733e-08
1.30806e-07
3.3552e-06
3.5991e-06
3.70703e-07
3.60165e-06
-1.00487e-07
3.55257e-06
-1.32937e-06
3.53955e-06
-6.37431e-07
3.5569e-06
2.55987e-07
3.60316e-06
6.00409e-07
3.61871e-06
7.54378e-08
3.62005e-06
-4.66862e-07
3.59133e-06
-9.76302e-07
3.55711e-06
-1.18951e-06
3.52311e-06
-1.09598e-06
3.49869e-06
-8.66386e-07
3.49357e-06
-5.29616e-07
3.4896e-06
-3.13911e-07
3.50344e-06
-7.38004e-08
3.5034e-06
-3.29413e-08
3.50912e-06
2.30502e-08
3.51294e-06
8.2452e-08
3.51215e-06
9.12631e-08
1.25525e-07
3.51743e-06
3.77012e-06
3.55285e-07
3.77308e-06
-1.03441e-07
3.72336e-06
-1.27965e-06
3.7105e-06
-6.24575e-07
3.72805e-06
2.38443e-07
3.7739e-06
5.54559e-07
3.79012e-06
5.92143e-08
3.79041e-06
-4.67152e-07
3.76194e-06
-9.47827e-07
3.72724e-06
-1.15482e-06
3.69312e-06
-1.06186e-06
3.66865e-06
-8.41913e-07
3.66287e-06
-5.2384e-07
3.65916e-06
-3.10194e-07
3.67167e-06
-8.63149e-08
3.67277e-06
-3.40417e-08
3.6777e-06
1.81183e-08
3.68234e-06
7.78143e-08
3.68229e-06
9.13133e-08
1.20345e-07
3.68747e-06
3.94936e-06
3.40115e-07
3.95265e-06
-1.06728e-07
3.9025e-06
-1.22951e-06
3.8896e-06
-6.11675e-07
3.90743e-06
2.20609e-07
3.95272e-06
5.09272e-07
3.96959e-06
4.23495e-08
3.96889e-06
-4.66451e-07
3.94062e-06
-9.19557e-07
3.90555e-06
-1.11976e-06
3.87135e-06
-1.02765e-06
3.84679e-06
-8.17359e-07
3.8404e-06
-5.17451e-07
3.83689e-06
-3.06681e-07
3.84814e-06
-9.75602e-08
3.85024e-06
-3.61475e-08
3.8546e-06
1.37638e-08
3.85981e-06
7.26025e-08
3.86061e-06
9.0513e-08
1.15304e-07
3.86565e-06
4.13721e-06
3.25156e-07
4.14075e-06
-1.10268e-07
4.09041e-06
-1.17917e-06
4.07724e-06
-5.98506e-07
4.09541e-06
2.02445e-07
4.14002e-06
4.64662e-07
4.15746e-06
2.49051e-08
4.15589e-06
-4.64877e-07
4.1278e-06
-8.91471e-07
4.09244e-06
-1.0844e-06
4.05821e-06
-9.93422e-07
4.0335e-06
-7.92649e-07
4.02653e-06
-5.10477e-07
4.02317e-06
-3.03325e-07
4.03315e-06
-1.07542e-07
4.03612e-06
-3.91148e-08
4.04013e-06
9.75355e-09
4.04569e-06
6.70455e-08
4.04739e-06
8.88097e-08
1.10373e-07
4.05232e-06
4.33408e-06
3.10376e-07
4.33779e-06
-1.13977e-07
4.28751e-06
-1.12888e-06
4.27386e-06
-5.8486e-07
4.29235e-06
1.83956e-07
4.3362e-06
4.20813e-07
4.35414e-06
6.96698e-09
4.35183e-06
-4.62569e-07
4.32393e-06
-8.63572e-07
4.28832e-06
-1.04879e-06
4.25416e-06
-9.59264e-07
4.22921e-06
-7.67695e-07
4.22164e-06
-5.02903e-07
4.21841e-06
-3.00099e-07
4.2271e-06
-1.16229e-07
4.23076e-06
-4.27755e-08
4.23464e-06
5.87134e-09
4.24039e-06
6.12954e-08
4.24297e-06
8.62256e-08
1.05515e-07
4.24783e-06
4.54039e-06
2.95758e-07
4.54417e-06
-1.17751e-07
4.49419e-06
-1.07891e-06
4.47992e-06
-5.70596e-07
4.49869e-06
1.65195e-07
4.54172e-06
3.77776e-07
4.56002e-06
-1.13304e-08
4.55712e-06
-4.59671e-07
4.52943e-06
-8.35884e-07
4.49364e-06
-1.013e-06
4.45964e-06
-9.25267e-07
4.43438e-06
-7.42432e-07
4.42615e-06
-4.94678e-07
4.42304e-06
-2.96987e-07
4.4304e-06
-1.23586e-07
4.43455e-06
-4.69289e-08
4.43846e-06
1.96395e-09
4.44436e-06
5.54003e-08
4.44773e-06
8.28526e-08
1.00682e-07
4.45256e-06
4.75657e-06
2.81305e-07
4.76029e-06
-1.21469e-07
4.71086e-06
-1.02948e-06
4.69593e-06
-5.55668e-07
4.71489e-06
1.46237e-07
4.75705e-06
3.35613e-07
4.77556e-06
-2.98378e-08
4.77218e-06
-4.56289e-07
4.74474e-06
-8.08452e-07
4.70884e-06
-9.77094e-07
4.6751e-06
-8.91521e-07
4.64951e-06
-7.16851e-07
4.64056e-06
-4.85719e-07
4.63754e-06
-2.93975e-07
4.64365e-06
-1.29694e-07
4.64798e-06
-5.12574e-08
4.65205e-06
-2.10296e-09
4.65803e-06
4.9415e-08
4.6621e-06
7.87798e-08
9.58242e-08
4.66696e-06
4.98307e-06
2.67035e-07
4.98659e-06
-1.24989e-07
4.93794e-06
-9.80826e-07
4.92241e-06
-5.40145e-07
4.94145e-06
1.27204e-07
4.98268e-06
2.9438e-07
5.00123e-06
-4.83933e-08
4.99744e-06
-4.52491e-07
4.9703e-06
-7.81317e-07
4.93439e-06
-9.4118e-07
4.90098e-06
-8.58116e-07
4.87514e-06
-6.91005e-07
4.86535e-06
-4.75929e-07
4.86241e-06
-2.91042e-07
4.86741e-06
-1.34693e-07
4.87171e-06
-5.55527e-08
4.87592e-06
-6.31472e-09
4.88196e-06
4.33728e-08
4.88665e-06
7.40916e-08
9.08924e-08
4.89158e-06
5.22038e-06
2.52974e-07
5.22356e-06
-1.28171e-07
5.17585e-06
-9.33122e-07
5.15991e-06
-5.24202e-07
5.17887e-06
1.0825e-07
5.21911e-06
2.54142e-07
5.23756e-06
-6.68476e-08
5.23337e-06
-4.48304e-07
5.20657e-06
-7.54512e-07
5.17075e-06
-9.05367e-07
5.13777e-06
-8.25132e-07
5.11178e-06
-6.65013e-07
5.10109e-06
-4.65238e-07
5.09815e-06
-2.88103e-07
5.10226e-06
-1.38801e-07
5.10638e-06
-5.96734e-08
5.11067e-06
-1.06042e-08
5.11673e-06
3.7312e-08
5.12193e-06
6.88919e-08
8.58192e-08
5.127e-06
5.46901e-06
2.39156e-07
5.47174e-06
-1.30902e-07
5.42508e-06
-8.86468e-07
5.40898e-06
-5.08094e-07
5.4277e-06
8.9522e-08
5.46681e-06
2.1503e-07
5.48509e-06
-8.51214e-08
5.48049e-06
-4.4371e-07
5.45405e-06
-7.2807e-07
5.41844e-06
-8.69755e-07
5.38596e-06
-7.92648e-07
5.35998e-06
-6.3904e-07
5.34834e-06
-4.53592e-07
5.34531e-06
-2.85078e-07
5.34873e-06
-1.42219e-07
5.3526e-06
-6.35469e-08
5.35687e-06
-1.48672e-08
5.36291e-06
3.12644e-08
5.36855e-06
6.32574e-08
8.05667e-08
5.3738e-06
5.7295e-06
2.25616e-07
5.73172e-06
-1.33125e-07
5.68612e-06
-8.40871e-07
5.67015e-06
-4.92123e-07
5.68852e-06
7.11559e-08
5.72632e-06
1.7723e-07
5.74438e-06
-1.03179e-07
5.73936e-06
-4.38691e-07
5.71329e-06
-7.02003e-07
5.67797e-06
-8.34437e-07
5.64605e-06
-7.60729e-07
5.62028e-06
-6.13263e-07
5.6077e-06
-4.4102e-07
5.60449e-06
-2.81859e-07
5.60743e-06
-1.45158e-07
5.61095e-06
-6.70753e-08
5.61512e-06
-1.90336e-08
5.62112e-06
2.52666e-08
5.62705e-06
5.73213e-08
7.50565e-08
5.63256e-06
6.00243e-06
2.12382e-07
6.00414e-06
-1.34838e-07
5.95953e-06
-7.96262e-07
5.94399e-06
-4.76586e-07
5.96192e-06
5.32264e-08
5.99816e-06
1.4099e-07
6.01598e-06
-1.20999e-07
6.01056e-06
-4.33267e-07
5.98486e-06
-6.76306e-07
5.94992e-06
-7.99489e-07
5.91861e-06
-7.29425e-07
5.89321e-06
-5.87855e-07
5.87981e-06
-4.27621e-07
5.87628e-06
-2.78335e-07
5.87887e-06
-1.47747e-07
5.88206e-06
-7.02591e-08
5.88601e-06
-2.29888e-08
5.89196e-06
1.93196e-08
5.89804e-06
5.12374e-08
6.92734e-08
5.90382e-06
6.28839e-06
1.99479e-07
6.28965e-06
-1.36093e-07
6.24591e-06
-7.52524e-07
6.23105e-06
-4.61731e-07
6.24855e-06
3.57303e-08
6.28294e-06
1.066e-07
6.30046e-06
-1.38524e-07
6.29473e-06
-4.27538e-07
6.26938e-06
-6.50954e-07
6.23487e-06
-7.64973e-07
6.20421e-06
-6.9877e-07
6.17935e-06
-5.62989e-07
6.16523e-06
-4.13508e-07
6.16133e-06
-2.74433e-07
6.16364e-06
-1.50056e-07
6.16652e-06
-7.31436e-08
6.17017e-06
-2.66401e-08
6.17601e-06
1.34822e-08
6.18218e-06
4.50673e-08
6.32997e-08
6.18816e-06
6.58803e-06
1.86921e-07
6.58889e-06
-1.36958e-07
6.54594e-06
-7.09571e-07
6.53188e-06
-4.47674e-07
6.54904e-06
1.85755e-08
6.58132e-06
7.43222e-08
6.5984e-06
-1.55604e-07
6.59251e-06
-4.21649e-07
6.56751e-06
-6.25957e-07
6.53346e-06
-7.30927e-07
6.50346e-06
-6.6877e-07
6.47925e-06
-5.38775e-07
6.46463e-06
-3.98885e-07
6.46021e-06
-2.70021e-07
6.46228e-06
-1.52124e-07
6.46497e-06
-7.58266e-08
6.46827e-06
-2.99481e-08
6.47392e-06
7.83622e-09
6.48012e-06
3.88698e-08
5.72106e-08
6.48621e-06
6.90201e-06
1.74706e-07
6.90252e-06
-1.37477e-07
6.8604e-06
-6.67446e-07
6.84701e-06
-4.34287e-07
6.86405e-06
1.53358e-09
6.89405e-06
4.43288e-08
6.91043e-06
-1.71983e-07
6.90451e-06
-4.15734e-07
6.87991e-06
-6.01357e-07
6.84639e-06
-6.97402e-07
6.81699e-06
-6.39373e-07
6.79352e-06
-5.1531e-07
6.77859e-06
-3.83952e-07
6.7736e-06
-2.65026e-07
6.77541e-06
-1.53937e-07
6.77797e-06
-7.8391e-08
6.78095e-06
-3.29281e-08
6.7863e-06
2.49364e-09
6.79258e-06
3.25906e-08
5.11272e-08
6.79866e-06
7.23103e-06
1.62814e-07
7.23117e-06
-1.37622e-07
7.19012e-06
-6.26392e-07
7.177e-06
-4.21172e-07
7.19419e-06
-1.56547e-08
7.22192e-06
1.65996e-08
7.23723e-06
-1.87294e-07
7.23139e-06
-4.09889e-07
7.2073e-06
-5.77275e-07
7.17433e-06
-6.64432e-07
7.14546e-06
-6.10499e-07
7.12277e-06
-4.92617e-07
7.10773e-06
-3.68913e-07
7.10214e-06
-2.59442e-07
7.10362e-06
-1.55418e-07
7.10618e-06
-8.09488e-08
7.10884e-06
-3.55827e-08
7.11382e-06
-2.4875e-09
7.12019e-06
2.62163e-08
4.50206e-08
7.1263e-06
7.57584e-06
1.51204e-07
7.57549e-06
-1.3728e-07
7.53594e-06
-5.86835e-07
7.52254e-06
-4.07774e-07
7.54004e-06
-3.31536e-08
7.56569e-06
-9.05538e-09
7.57955e-06
-2.01153e-07
7.57379e-06
-4.04125e-07
7.55038e-06
-5.53862e-07
7.51802e-06
-6.32081e-07
7.48962e-06
-5.82098e-07
7.46756e-06
-4.70554e-07
7.45261e-06
-3.53966e-07
7.44652e-06
-2.5335e-07
7.44758e-06
-1.56475e-07
7.45018e-06
-8.35487e-08
7.45261e-06
-3.80114e-08
7.45715e-06
-7.02512e-09
7.46358e-06
1.97847e-08
3.87849e-08
7.46981e-06
7.93719e-06
1.39821e-07
7.93618e-06
-1.36263e-07
7.89868e-06
-5.49336e-07
7.88443e-06
-3.93528e-07
7.90221e-06
-5.09281e-08
7.92609e-06
-3.29346e-08
7.93821e-06
-2.1328e-07
7.9324e-06
-3.98315e-07
7.90978e-06
-5.31236e-07
7.87822e-06
-6.00526e-07
7.8502e-06
-5.54079e-07
7.82856e-06
-4.48908e-07
7.81384e-06
-3.39246e-07
7.80734e-06
-2.4685e-07
7.80795e-06
-1.57091e-07
7.81057e-06
-8.61699e-08
7.81296e-06
-4.0399e-08
7.81705e-06
-1.11166e-08
7.82333e-06
1.35025e-08
3.22853e-08
7.82983e-06
8.31589e-06
1.28608e-07
8.314e-06
-1.34364e-07
8.27906e-06
-5.14404e-07
8.26365e-06
-3.78111e-07
8.28134e-06
-6.8621e-08
8.30385e-06
-5.54424e-08
8.31412e-06
-2.23551e-07
8.30797e-06
-3.92168e-07
8.28619e-06
-5.09458e-07
8.25563e-06
-5.69962e-07
8.22787e-06
-5.2632e-07
8.20651e-06
-4.27551e-07
8.19199e-06
-3.24728e-07
8.18525e-06
-2.401e-07
8.18548e-06
-1.57326e-07
8.18812e-06
-8.88102e-08
8.19062e-06
-4.28969e-08
8.19434e-06
-1.48437e-08
8.20025e-06
7.59806e-09
2.55693e-08
8.20697e-06
8.71275e-06
1.17516e-07
8.70982e-06
-1.31427e-07
8.67768e-06
-4.82267e-07
8.66134e-06
-3.61771e-07
8.67808e-06
-8.53649e-08
8.69969e-06
-7.70451e-08
8.70817e-06
-2.32034e-07
8.70129e-06
-3.85289e-07
8.68034e-06
-4.88507e-07
8.65085e-06
-5.40468e-07
8.62332e-06
-4.98795e-07
8.60226e-06
-4.0649e-07
8.58795e-06
-3.10419e-07
8.58101e-06
-2.33154e-07
8.58099e-06
-1.57313e-07
8.5837e-06
-9.15172e-08
8.58638e-06
-4.55732e-08
8.58986e-06
-1.8328e-08
8.59524e-06
2.21473e-09
1.88583e-08
8.60195e-06
9.12861e-06
1.06522e-07
9.12458e-06
-1.27391e-07
9.09514e-06
-4.52831e-07
9.07857e-06
-3.452e-07
9.09332e-06
-1.00113e-07
9.11421e-06
-9.79326e-08
9.12114e-06
-2.3897e-07
9.11326e-06
-3.77411e-07
9.09287e-06
-4.68117e-07
9.06455e-06
-5.12142e-07
9.03749e-06
-4.71739e-07
9.0168e-06
-3.85794e-07
9.0028e-06
-2.96426e-07
8.99564e-06
-2.25987e-07
8.99536e-06
-1.57039e-07
8.99826e-06
-9.44143e-08
9.00109e-06
-4.84008e-08
9.00443e-06
-2.16667e-08
9.00936e-06
-2.71755e-09
1.25302e-08
9.01569e-06
9.56434e-06
9.56457e-08
9.55929e-06
-1.22347e-07
9.53218e-06
-4.25717e-07
9.51631e-06
-3.29333e-07
9.52817e-06
-1.11967e-07
9.54779e-06
-1.17561e-07
9.55374e-06
-2.44921e-07
9.54481e-06
-3.68481e-07
9.52457e-06
-4.47876e-07
9.49763e-06
-4.85199e-07
9.47155e-06
-4.45661e-07
9.45135e-06
-3.65596e-07
9.43776e-06
-2.82831e-07
9.43032e-06
-2.18552e-07
9.42961e-06
-1.56327e-07
9.43265e-06
-9.74563e-08
9.43575e-06
-5.14968e-08
9.4389e-06
-2.48153e-08
9.44354e-06
-7.36495e-09
6.82308e-09
9.44925e-06
1.00208e-05
8.4949e-08
1.0015e-05
-1.16531e-07
9.98962e-06
-4.00326e-07
9.97544e-06
-3.15148e-07
9.98405e-06
-1.20576e-07
1.00016e-05
-1.35134e-07
1.00066e-05
-2.49935e-07
9.99692e-06
-3.5877e-07
9.97673e-06
-4.27685e-07
9.95118e-06
-4.59646e-07
9.92642e-06
-4.20901e-07
9.90701e-06
-3.46182e-07
9.89384e-06
-2.69668e-07
9.88624e-06
-2.10944e-07
9.88486e-06
-1.54955e-07
9.88782e-06
-1.00411e-07
9.89135e-06
-5.50259e-08
9.89431e-06
-2.77803e-08
9.89864e-06
-1.16922e-08
1.60247e-09
9.90386e-06
1.0499e-05
7.45411e-08
1.04928e-05
-1.10301e-07
1.04685e-05
-3.76007e-07
1.04568e-05
-3.03409e-07
1.04625e-05
-1.26276e-07
1.04772e-05
-1.49886e-07
1.04812e-05
-2.53935e-07
1.04709e-05
-3.48491e-07
1.04507e-05
-4.0746e-07
1.04263e-05
-4.35213e-07
1.04031e-05
-3.97755e-07
1.03848e-05
-3.27838e-07
1.03721e-05
-2.56958e-07
1.03644e-05
-2.03226e-07
1.03623e-05
-1.52911e-07
1.03648e-05
-1.02891e-07
1.03688e-05
-5.90185e-08
1.03718e-05
-3.07528e-08
1.03755e-05
-1.5435e-08
-3.55325e-09
1.03807e-05
1.1e-05
6.45639e-08
1.09938e-05
-1.04062e-07
1.097e-05
-3.52236e-07
1.09609e-05
-2.94324e-07
1.09647e-05
-1.30048e-07
1.09759e-05
-1.61148e-07
1.0979e-05
-2.57043e-07
1.09684e-05
-3.37873e-07
1.09479e-05
-3.86947e-07
1.09242e-05
-4.11491e-07
1.09028e-05
-3.76343e-07
1.08856e-05
-3.10685e-07
1.08735e-05
-2.44835e-07
1.08657e-05
-1.95459e-07
1.08631e-05
-1.50268e-07
1.08649e-05
-1.04678e-07
1.08689e-05
-6.30823e-08
1.08723e-05
-3.4122e-08
1.08755e-05
-1.86227e-08
-8.39302e-09
1.08803e-05
1.15247e-05
5.51858e-08
1.15189e-05
-9.82155e-08
1.14953e-05
-3.28666e-07
1.14886e-05
-2.87576e-07
1.14917e-05
-1.33146e-07
1.14991e-05
-1.68533e-07
1.1501e-05
-2.58943e-07
1.14905e-05
-3.27452e-07
1.14699e-05
-3.66355e-07
1.14465e-05
-3.88046e-07
1.14264e-05
-3.5621e-07
1.14105e-05
-2.9485e-07
1.13991e-05
-2.33433e-07
1.13914e-05
-1.87741e-07
1.13882e-05
-1.47073e-07
1.13894e-05
-1.05809e-07
1.1393e-05
-6.67555e-08
1.13969e-05
-3.8007e-08
1.13998e-05
-2.15394e-08
-1.25092e-08
1.14039e-05
1.20744e-05
4.65926e-08
1.20694e-05
-9.31606e-08
1.20458e-05
-3.05076e-07
1.20408e-05
-2.82619e-07
1.20443e-05
-1.36624e-07
1.2048e-05
-1.72261e-07
1.20479e-05
-2.58808e-07
1.20382e-05
-3.17742e-07
1.20182e-05
-3.4636e-07
1.19948e-05
-3.64618e-07
1.19752e-05
-3.36664e-07
1.19605e-05
-2.8018e-07
1.195e-05
-2.22895e-07
1.19425e-05
-1.8026e-07
1.19389e-05
-1.43429e-07
1.19393e-05
-1.06272e-07
1.19425e-05
-6.98946e-08
1.19465e-05
-4.2019e-08
1.19496e-05
-2.46545e-08
-1.58682e-08
1.1953e-05
1.26502e-05
3.89775e-08
1.26463e-05
-8.92943e-08
1.26226e-05
-2.81338e-07
1.26187e-05
-2.78747e-07
1.26234e-05
-1.413e-07
1.26241e-05
-1.72929e-07
1.26211e-05
-2.55816e-07
1.26121e-05
-3.08744e-07
1.25934e-05
-3.27716e-07
1.25702e-05
-3.41408e-07
1.25508e-05
-3.17218e-07
1.25369e-05
-2.66251e-07
1.25272e-05
-2.13199e-07
1.25201e-05
-1.73234e-07
1.25162e-05
-1.39504e-07
1.2516e-05
-1.06053e-07
1.25186e-05
-7.25232e-08
1.25224e-05
-4.57532e-08
1.25258e-05
-2.81276e-08
-1.87626e-08
1.25287e-05
1.32534e-05
3.25348e-08
1.3251e-05
-8.6891e-08
1.32272e-05
-2.57598e-07
1.32236e-05
-2.75085e-07
1.323e-05
-1.47691e-07
1.32283e-05
-1.71314e-07
1.3222e-05
-2.49518e-07
1.32132e-05
-2.99859e-07
1.31964e-05
-3.10979e-07
1.31741e-05
-3.19038e-07
1.31546e-05
-2.97757e-07
1.31409e-05
-2.52571e-07
1.31319e-05
-2.0414e-07
1.31254e-05
-1.66794e-07
1.31214e-05
-1.35497e-07
1.31206e-05
-1.05244e-07
1.31227e-05
-7.45989e-08
1.3126e-05
-4.9092e-08
1.31296e-05
-3.16945e-08
-2.16028e-08
1.31324e-05
1.38853e-05
2.73964e-08
1.38845e-05
-8.61368e-08
1.38611e-05
-2.34184e-07
1.38568e-05
-2.70734e-07
1.38647e-05
-1.55589e-07
1.38618e-05
-1.68427e-07
1.38522e-05
-2.3996e-07
1.38425e-05
-2.90153e-07
1.38279e-05
-2.96374e-07
1.38073e-05
-2.98408e-07
1.3788e-05
-2.78437e-07
1.37742e-05
-2.38789e-07
1.37654e-05
-1.95388e-07
1.37595e-05
-1.60857e-07
1.37557e-05
-1.31678e-07
1.37544e-05
-1.04e-07
1.37559e-05
-7.60966e-08
1.37589e-05
-5.20128e-08
1.37622e-05
-3.5072e-08
-2.45469e-08
1.37652e-05
1.45475e-05
2.35911e-08
1.4548e-05
-8.67016e-08
1.45257e-05
-2.11874e-07
1.452e-05
-2.64981e-07
1.45284e-05
-1.63976e-07
1.4525e-05
-1.65051e-07
1.45128e-05
-2.27757e-07
1.45016e-05
-2.78936e-07
1.44889e-05
-2.83754e-07
1.44709e-05
-2.80325e-07
1.44522e-05
-2.59816e-07
1.44383e-05
-2.24847e-07
1.44294e-05
-1.86528e-07
1.44238e-05
-1.55229e-07
1.44203e-05
-1.28139e-07
1.44188e-05
-1.0253e-07
1.44198e-05
-7.70626e-08
1.44222e-05
-5.4492e-08
1.44253e-05
-3.81208e-08
-2.7538e-08
1.44283e-05
1.52414e-05
2.10451e-08
1.5243e-05
-8.83065e-08
1.52231e-05
-1.91967e-07
1.52143e-05
-2.56162e-07
1.52214e-05
-1.71107e-07
1.52185e-05
-1.62128e-07
1.52051e-05
-2.14314e-07
1.51923e-05
-2.66158e-07
1.51808e-05
-2.72295e-07
1.51655e-05
-2.65014e-07
1.51486e-05
-2.42882e-07
1.51346e-05
-2.10813e-07
1.51254e-05
-1.77341e-07
1.51198e-05
-1.49629e-07
1.51165e-05
-1.24858e-07
1.5115e-05
-1.01023e-07
1.51156e-05
-7.76552e-08
1.51176e-05
-5.65341e-08
1.51203e-05
-4.07566e-08
-3.04075e-08
1.51231e-05
1.59687e-05
1.9641e-08
1.59756e-05
-9.51603e-08
1.59546e-05
-1.70976e-07
1.59394e-05
-2.4097e-07
1.59453e-05
-1.77026e-07
1.59449e-05
-1.61668e-07
1.59312e-05
-2.00647e-07
1.5917e-05
-2.5195e-07
1.59054e-05
-2.60677e-07
1.58926e-05
-2.5223e-07
1.58781e-05
-2.28411e-07
1.58645e-05
-1.97206e-07
1.5855e-05
-1.67802e-07
1.5849e-05
-1.43697e-07
1.58459e-05
-1.21682e-07
1.58444e-05
-9.95695e-08
1.58447e-05
-7.79532e-08
1.58464e-05
-5.82641e-08
1.58487e-05
-4.30241e-08
-3.29636e-08
1.58513e-05
1.67307e-05
1.95817e-08
1.67272e-05
-9.17318e-08
1.67105e-05
-1.54276e-07
1.66973e-05
-2.2769e-07
1.67032e-05
-1.82973e-07
1.67059e-05
-1.64358e-07
1.66932e-05
-1.87989e-07
1.66775e-05
-2.36219e-07
1.66648e-05
-2.4802e-07
1.66535e-05
-2.40924e-07
1.66416e-05
-2.16424e-07
1.66295e-05
-1.85173e-07
1.66197e-05
-1.57934e-07
1.66133e-05
-1.3737e-07
1.661e-05
-1.18351e-07
1.66086e-05
-9.8167e-08
1.66087e-05
-7.80987e-08
1.66102e-05
-5.96997e-08
1.66122e-05
-4.5064e-08
-3.51002e-08
1.66143e-05
1.75298e-05
2.01487e-08
1.75311e-05
-9.3025e-08
1.75133e-05
-1.36474e-07
1.74957e-05
-2.10073e-07
1.74974e-05
-1.84736e-07
1.75023e-05
-1.69257e-07
1.74921e-05
-1.77732e-07
1.74755e-05
-2.19664e-07
1.74617e-05
-2.34246e-07
1.74505e-05
-2.29698e-07
1.74406e-05
-2.06488e-07
1.74307e-05
-1.75256e-07
1.74211e-05
-1.48377e-07
1.74143e-05
-1.30552e-07
1.74106e-05
-1.14636e-07
1.74091e-05
-9.66642e-08
1.74091e-05
-7.81753e-08
1.74103e-05
-6.08376e-08
1.74122e-05
-4.6979e-08
-3.69456e-08
1.7414e-05
1.83674e-05
2.10947e-08
1.8365e-05
-9.06472e-08
1.83516e-05
-1.23089e-07
1.83341e-05
-1.92539e-07
1.83311e-05
-1.81693e-07
1.83363e-05
-1.74488e-07